# vtk DataFile Version 3.0
./plots/steadyStateStream.vtk
ASCII
DATASET UNSTRUCTURED_GRID

POINTS   33796 double
  19.95112420      0.4778387620E-01   0.000000000    
  19.96179710      0.9531861830       0.000000000    
 0.1488662850      0.3252639740       0.000000000    
 0.1604675090      0.3305391960       0.000000000    
 0.1354653540      0.3273625450       0.000000000    
 0.1169132700      0.3293580160       0.000000000    
 0.1012292930      0.3232811960       0.000000000    
 0.1925822220      0.3171747020       0.000000000    
 0.1756161410      0.3199301320       0.000000000    
 0.1469606340      0.3399416610       0.000000000    
 0.1601446360      0.3434853150       0.000000000    
 0.1582880910      0.3149875490       0.000000000    
 0.1430455690      0.3130370420       0.000000000    
 0.1269564270      0.3128246700       0.000000000    
 0.1299396260      0.3431641140       0.000000000    
 0.1103911880      0.3115607590       0.000000000    
 0.1142396020      0.3482591030       0.000000000    
 0.1000778410      0.3383571760       0.000000000    
 0.9414935660E-01  0.3102351100       0.000000000    
 0.7806870490E-01  0.3085874530       0.000000000    
 0.8457984260E-01  0.3264950220       0.000000000    
 0.6596281210E-01  0.3200911770       0.000000000    
 0.6457945240E-01  0.3055048540       0.000000000    
 0.5006657490E-01  0.3107153710       0.000000000    
 0.3867795220E-01  0.3212741050       0.000000000    
 0.3263764790E-01  0.3085470340       0.000000000    
 0.2201228840      0.2999397410       0.000000000    
 0.2213671920      0.3141572120       0.000000000    
 0.2313745810      0.3032063370       0.000000000    
 0.2059801330      0.3247496700       0.000000000    
 0.2053122100      0.3049877470       0.000000000    
 0.1865155340      0.3029791850       0.000000000    
 0.1892826840      0.3329253740       0.000000000    
 0.1728415510      0.3389290060       0.000000000    
 0.1691302720      0.3014766540       0.000000000    
 0.1524300930      0.2993998760       0.000000000    
 0.1361110340      0.2981435580       0.000000000    
 0.1535932820      0.3527450650       0.000000000    
 0.1196942890      0.2971973860       0.000000000    
 0.1258218670      0.3572042280       0.000000000    
 0.9914621440E-01  0.3557741330       0.000000000    
 0.1033472000      0.2961360990       0.000000000    
 0.6830010310E-01  0.3380507670       0.000000000    
 0.8731112190E-01  0.2950094190       0.000000000    
 0.7197879020E-01  0.2938645050       0.000000000    
 0.8435466190E-01  0.3463881800       0.000000000    
 0.5041891400E-01  0.3309064680       0.000000000    
 0.5703536570E-01  0.2940084950       0.000000000    
 0.3543797510E-01  0.3325074660       0.000000000    
 0.4156918600E-01  0.2943548390       0.000000000    
 0.2609981910E-01  0.2934513950       0.000000000    
 0.1459199960E-01  0.3076388070       0.000000000    
 0.1365285480E-01  0.2912054600       0.000000000    
-0.1135166410E-01  0.2987795870       0.000000000    
 0.1588792680E-02  0.2954203140       0.000000000    
 0.2818089050      0.3136985500       0.000000000    
 0.2419327370      0.3177763260       0.000000000    
 0.2444130060      0.2948658480       0.000000000    
 0.2631921140      0.3040728230       0.000000000    
 0.1967622980      0.2877467560       0.000000000    
 0.2231833810      0.3341162210       0.000000000    
 0.2134468990      0.2880402280       0.000000000    
 0.2287958830      0.2893026300       0.000000000    
 0.2039053570      0.3447138550       0.000000000    
 0.1846259040      0.3513913580       0.000000000    
 0.1793904800      0.2864984110       0.000000000    
 0.1455143960      0.2837410670       0.000000000    
 0.1623018200      0.2850754030       0.000000000    
 0.1668649160      0.3544335300       0.000000000    
 0.1402160470      0.3559921240       0.000000000    
 0.1289017310      0.2826864560       0.000000000    
 0.1135709860      0.3649035520       0.000000000    
 0.1124168440      0.2817667910       0.000000000    
 0.8029606210E-01  0.2801207390       0.000000000    
 0.9616616650E-01  0.2808938450       0.000000000    
 0.5491779490E-01  0.3486210610       0.000000000    
 0.6481364330E-01  0.2797004390       0.000000000    
 0.8437175630E-01  0.3636668340       0.000000000    
 0.4001261940E-01  0.3449200850       0.000000000    
 0.4951135210E-01  0.2796320400       0.000000000    
 0.3439488050E-01  0.2794621660       0.000000000    
 0.2520212430E-01  0.3235203950       0.000000000    
 0.2001389060E-01  0.2791260790       0.000000000    
-0.3780576340E-02  0.3117613420       0.000000000    
 0.6069455650E-02  0.2800388280       0.000000000    
-0.2304087910E-01  0.2925599090       0.000000000    
-0.9667674150E-02  0.2826331290       0.000000000    
-0.4665510100E-01  0.2877770510       0.000000000    
-0.3466046450E-01  0.2831535530       0.000000000    
-0.2284197240E-01  0.2785393450       0.000000000    
 0.3014408380      0.3085575780       0.000000000    
 0.2657241570      0.3290553810       0.000000000    
 0.2844933870      0.2903041920       0.000000000    
 0.3055195040      0.2891389830       0.000000000    
 0.2062753230      0.2725826950       0.000000000    
 0.2229800210      0.2738183820       0.000000000    
 0.2609720600      0.2788874830       0.000000000    
 0.2215696280      0.3580514230       0.000000000    
 0.2441033930      0.3449382160       0.000000000    
 0.2400801170      0.2760882560       0.000000000    
 0.1986168200      0.3664216430       0.000000000    
 0.1892404330      0.2715510840       0.000000000    
 0.1550427630      0.2692168250       0.000000000    
 0.1538469660      0.3689512930       0.000000000    
 0.1720809330      0.2703832870       0.000000000    
 0.1381741570      0.2681697930       0.000000000    
 0.1312456580      0.3728982500       0.000000000    
 0.3196157870      0.2992145720       0.000000000    
 0.1214776810      0.2672701120       0.000000000    
 0.8880331150E-01  0.2658156160       0.000000000    
 0.6978613960E-01  0.3555716280       0.000000000    
 0.1049953610      0.2664842890       0.000000000    
 0.8426617900E-01  0.3794564900       0.000000000    
 0.9842102690E-01  0.3724333180       0.000000000    
 0.4487023880E-01  0.3577180980       0.000000000    
 0.7294893110E-01  0.2653311520       0.000000000    
 0.5740829300E-01  0.2650759790       0.000000000    
 0.4215937130E-01  0.2649714160       0.000000000    
 0.2327704830E-01  0.3418237960       0.000000000    
 0.7023833460E-02  0.3290733810       0.000000000    
 0.2728035910E-01  0.2649668000       0.000000000    
 0.1272549920E-01  0.2653211550       0.000000000    
-0.2199539390E-01  0.3111089270       0.000000000    
-0.1937459060E-02  0.2661940750       0.000000000    
-0.3805459380E-01  0.3007485760       0.000000000    
-0.1645591490E-01  0.2665133170       0.000000000    
-0.3074433780E-01  0.2676535270       0.000000000    
-0.5926149780E-01  0.2841152470       0.000000000    
-0.4707505400E-01  0.2714323070       0.000000000    
-0.6381835590E-01  0.2688286870       0.000000000    
-0.7683133560E-01  0.2672127820       0.000000000    
 0.2945337670      0.3366323690       0.000000000    
 0.2995872570      0.2713265310       0.000000000    
 0.2159148250      0.2578843580       0.000000000    
 0.2796415830      0.2666148560       0.000000000    
 0.2650058510      0.2598967790       0.000000000    
 0.2431750220      0.3732432670       0.000000000    
 0.2501286600      0.2606354970       0.000000000    
 0.2329333150      0.2592779510       0.000000000    
 0.2161769510      0.3845283470       0.000000000    
 0.1988643700      0.2567366540       0.000000000    
 0.1762019810      0.3700238920       0.000000000    
 0.1817082180      0.2556707920       0.000000000    
 0.1645538310      0.2546249450       0.000000000    
 0.1475001500      0.2536396030       0.000000000    
 0.1448255690      0.3864762360       0.000000000    
 0.3233594020      0.3224456720       0.000000000    
 0.3452540710      0.2995755030       0.000000000    
 0.3232162640      0.2763254140       0.000000000    
 0.1305978760      0.2527530350       0.000000000    
 0.7059396820E-01  0.3719853580       0.000000000    
 0.1138897560      0.2519773080       0.000000000    
 0.1128211290      0.3820289700       0.000000000    
 0.9683282650E-01  0.3881742750       0.000000000    
 0.8427017690E-01  0.3923103600       0.000000000    
 0.9743028150E-01  0.2513196800       0.000000000    
 0.5647236940E-01  0.3645377730       0.000000000    
 0.6543392390E-01  0.2504636470       0.000000000    
 0.8127036170E-01  0.2508054150       0.000000000    
 0.3159707740E-01  0.3579645930       0.000000000    
 0.8233584560E-02  0.3463759740       0.000000000    
 0.4992254540E-01  0.2502948790       0.000000000    
 0.3473776140E-01  0.2502874640       0.000000000    
 0.1984627550E-01  0.2504879350       0.000000000    
-0.1248383020E-01  0.3280221310       0.000000000    
 0.5110128960E-02  0.2509550280       0.000000000    
-0.3644388160E-01  0.3167334770       0.000000000    
-0.9587322030E-02  0.2515642810       0.000000000    
-0.2434529520E-01  0.2524142660       0.000000000    
-0.5453600120E-01  0.2992763920       0.000000000    
-0.3960491380E-01  0.2538413020       0.000000000    
-0.5537281470E-01  0.2546549980       0.000000000    
-0.7417358000E-01  0.2807679010       0.000000000    
-0.7063786050E-01  0.2548659780       0.000000000    
-0.8543640640E-01  0.2569929610       0.000000000    
-0.1008386640      0.2597752910       0.000000000    
 0.2688046290      0.3573177250       0.000000000    
 0.2425428000      0.2444004660       0.000000000    
 0.2255548220      0.2431758350       0.000000000    
 0.2394366250      0.4059288390       0.000000000    
 0.2084342810      0.2420400230       0.000000000    
 0.1891024390      0.3891555590       0.000000000    
 0.2590447710      0.2455847800       0.000000000    
[...]
POINT_DATA   33796
SCALARS psi double
LOOKUP_TABLE default
 0.1152836295    
 0.9583102244    
 0.5288835244    
 0.5398281043    
 0.5230381368    
 0.5140747052    
 0.5009290862    
 0.5457063976    
 0.5390800349    
 0.5396575033    
 0.5503269645    
 0.5253671922    
 0.5154985768    
 0.5067142066    
 0.5319385326    
 0.4969694814    
 0.5259848196    
 0.5108352850    
 0.4876135670    
 0.4784631122    
 0.4942683325    
 0.4805603561    
 0.4699375308    
 0.4670428636    
 0.4688385598    
 0.4583661827    
 0.5435201168    
 0.5578609185    
 0.5522586698    
 0.5598119261    
 0.5409413220    
 0.5294543912    
 0.5581198630    
 0.5539958153    
 0.5191336772    
 0.5086881793    
 0.4992564471    
 0.5536930372    
 0.4901744352    
 0.5393908645    
 0.5214003340    
 0.4812340061    
 0.4929247066    
 0.4726700216    
 0.4647551956    
 0.5067889052    
 0.4797975477    
 0.4583318122    
 0.4738861617    
 0.4522101178    
 0.4456534086    
 0.4510460837    
 0.4396844093    
 0.4370095393    
 0.4386436994    
 0.5869382529    
 0.5717431938    
 0.5503166834    
 0.5684707883    
 0.5202622566    
 0.5776783657    
 0.5286835728    
 0.5373240468    
 0.5767746231    
 0.5714210066    
 0.5105412714    
 0.4913771462    
 0.5008103886    
 0.5632122252    
 0.5477427713    
 0.4823946365    
 0.5363826298    
 0.4737572827    
 0.4577558060    
 0.4654921418    
 0.4915391212    
 0.4507795867    
 0.5163807858    
 0.4822876392    
 0.4444877968    
 0.4385581446    
 0.4646421587    
 0.4331556571    
 0.4475948369    
 0.4291869010    
 0.4295652468    
 0.4262637917    
 0.4204949551    
 0.4199609388    
 0.4196215948    
 0.5906649767    
 0.5945708107    
 0.5642331869    
 0.5723214400    
 0.5102224760    
 0.5192710438    
 0.5418908695    
 0.5985662247    
 0.5988559748    
 0.5294796777    
 0.5923934259    
 0.5011831080    
 0.4828359566    
 0.5660792167    
 0.4919562417    
 0.4739988425    
 0.5535396044    
 0.5889583428    
 0.4655132572    
 0.4497669386    
 0.5032826927    
 0.4574107171    
 0.5237869567    
 0.5303844592    
 0.4903511567    
 0.4426882147    
 0.4362203075    
 0.4303041307    
 0.4734563710    
 0.4610288513    
 0.4249352953    
 0.4202927461    
 0.4420472845    
 0.4163522796    
 0.4314342816    
 0.4123805894    
 0.4094356276    
 0.4151659823    
 0.4083494691    
 0.4027295340    
 0.3989020522    
 0.6158923537    
 0.5511583035    
 0.5003168999    
 0.5376274214    
 0.5243209051    
 0.6240474301    
 0.5184820833    
 0.5094044923    
 0.6179790260    
 0.4914279393    
 0.5814111696    
 0.4825686484    
 0.4737637490    
 0.4651360340    
 0.5720827169    
 0.6146748265    
 0.6001668418    
 0.5664226954    
 0.4567832241    
 0.5112611647    
 0.4487733263    
 0.5459268436    
 0.5369975050    
 0.5289192960    
 0.4411715182    
 0.4995013858    
 0.4274643363    
 0.4340501459    
 0.4838568940    
 0.4697335216    
 0.4214279451    
 0.4159380636    
 0.4110199267    
 0.4544212766    
 0.4066710538    
 0.4420158506    
 0.4027567105    
 0.3993286507    
 0.4269011655    
 0.3965446335    
 0.3934936124    
 0.4097908811    
 0.3903982538    
 0.3892060746    
 0.3887078960    
 0.6232327150    
 0.4988343508    
 0.4901675923    
 0.6490860874    
 0.4815004369    
 0.6045688137    
 0.5071984116    
 0.4728962910    
 0.4643631610    
 0.5874952702    
 0.5166318269    
 0.6429062842    
 0.6466882192    
 0.5386779333    
 0.5276706609    
 0.5463553081    
 0.5669745212    
 0.4559557759    
 0.4477515355    
 0.5640044142    
 0.4398246199    
 0.6236249904    
 0.5522899784    
 0.5396732216    
 0.4322452303    
 0.5178438277    
 0.5056147648    
 0.4937865237    
 0.4250815903    
 0.4771783633    
 0.4183920588    
 0.4122127063    
 0.4065567164    
 0.4014266010    
 0.4642055062    
 0.3968122593    
 0.4504944007    
 0.3926726318    
 0.3889760781    
 0.4377443067    
 0.3857185183    
 0.3827562161    
 0.4221394526    
 0.4022928208    
 0.3780089082    
 0.3800388597    
 0.3769077220    
 0.3767195911    
 0.3878134208    
 0.3792155038    
 0.3765872992    
 0.3752794996    
 0.6512737425    
 0.6335820214    
 0.6701427856    
 0.4798491087    
 0.4882976728    
 0.4714414125    
 0.4630800520    
 0.6097716076    
 0.4970421805    
 0.6501536435    
 0.5063741465    
 0.5248129975    
 0.5159076544    
 0.6728453000    
 0.4547862663    
 0.4385520854    
 0.5870688468    
 0.4465930470    
 0.5951973594    
 0.6504920783    
 0.5349765825    
 0.6272139511    
 0.4307256527    
 0.5706993124    
 0.5548682176    
 0.5260154282    
 0.4231806716    
 0.4997595956    
 0.4159853023    
 0.4847539127    
 0.4092024758    
 0.4028807893    
 0.3970485504    
 0.3917145355    
 0.4717670039    
 0.4595559487    
 0.3868708629    
 0.3824939128    
 0.4474142635    
 0.3785531453    
 0.3750224729    
 0.4336270162    
 0.3718648177    
 0.4171027159    
 0.3690635126    
 0.3667268933    
 0.3650276591    
 0.3640671420    
 0.3992766908    
 0.3639628138    
 0.3952016473    
 0.3637055930    
 0.3908079635    
 0.3874172873    
 0.3634405693    
 0.3830349196    
 0.3662162866    
 0.3784727134    
 0.3640615978    
 0.3755130610    
 0.3647373830    
 0.3666070028    
 0.3684340121    
 0.3643238403    
 0.6752248030    
 0.4695626176    
 0.4613573445    
 0.6308157639    
 0.6512886373    
 0.6629709264    
 0.4779048262    
 0.6792557454    
 0.4864618985    
 0.6783615272    
 0.4950918899    
 0.4532224927    
 0.4451516612    
 0.6098117302    
 0.4371641090    
 0.6857576706    
 0.5032640483    
 0.5099914361    
 0.5282583012    
 0.5583120903    
 0.6690248110    
 0.5932966119    
 0.4292948425    
 0.4215908118    
 0.5905073380    
 0.5727533269    
 0.5382410660    
 0.4141082118    
 0.5103903185    
 0.4069095302    
 0.4911745276    
 0.4000582924    
 0.3936110970    
 0.3876096749    
 0.4780534007    
 0.3820762755    
 0.4671332952    
 0.3770133436    
 0.4560225959    
 0.3724064216    
 0.3682305582    
 0.4439545692    
 0.3644589695    
 0.3610685741    
 0.4295106000    
 0.3580505133    
 0.3554362935    
 0.3532996955    
 0.3517096015    
 0.4125937282    
 0.3506817236    
 0.4088339346    
 0.3500367487    
 0.4050286793    
 0.4013077812    
 0.3496538625    
 0.3975080399    
 0.3499006833    
 0.3933557757    
 0.3499982098    
 0.3888150900    
 0.3499814682    
 0.3816748530    
 0.3510256007    
 0.3804350253    
 0.3536287706    
 0.3774056987    
 0.3524830412    
 0.3699984579    
 0.3534201450    
 0.3688915688    
 0.3543873052    
 0.3684312246    
 0.3585455162    
 0.3560032808    
 0.3541904391    
 0.6905717793    
 0.6761225803    
 0.4674944365    
 0.4756432823    
 0.7037714267    
 0.7083885394    
 0.4355729510    
 0.4434372795    
 0.4593806709    
 0.4513676515    
 0.6268904242    
 0.7051611562    
 0.4835662132    
 0.4907256428    
 0.5107543182    
 0.4959210553    
 0.7108534274    
 0.6280446246    
 0.4200852237    
 0.4277812121    
 0.4125193450    
 0.5899795181    
 0.5541960471    
 0.5304070237    
 0.5592615640    
 0.5207491204    
 0.4051272579    
 0.4971307297    
 0.3979610518    
 0.7071808573    
 0.6632797330    
 0.7291152623    
 0.6966699047    
 0.7307516150    
 0.3910786318    
 0.3845381213    
 0.4831027872    
 0.3783901821    
 0.3726706919    
 0.4729683187    
 0.7832203848    
 0.3673963421    
 0.4634922089    
 0.3625645398    
 0.3581578303    
 0.4530148860    
 0.3541517360    
 0.3505233643    
 0.4405250591    
 0.3472597879    
 0.3443672588    
 0.3418739664    
 0.3398154956    
 0.4255386043    
 0.3382063990    
 0.4218898167    
 0.3370067747    
 0.4184529474    
 0.3361548269    
 0.4150493661    
 0.4115933160    
 0.3356558015    
 0.4079573466    
 0.3354131927    
 0.4040248156    
 0.3353191334    
 0.3996152407    
 0.3355873974    
 0.3957941188    
 0.3363820036    
 0.3926414383    
 0.3369073776    
 0.3886305095    
 0.3372231498    
 0.3849683807    
 0.3380272872    
 0.3822904909    
 0.3394120330    
 0.3781513443    
 0.3402083598    
 0.3734349288    
 0.3403399044    
 0.3694252317    
 0.3426684618    
 0.3626353386    
 0.3464974541    
 0.3633014027    
 0.3529115484    
 0.3517263257    
 0.3516447158    
 0.7095065928    
 0.7238495903    
 0.6940293085    
 0.6481310840    
 0.4493735651    
 0.7380537310    
 0.4724742318    
 0.4572044362    
 0.4649651532    
 0.4887798044    
 0.4797228731    
 0.7358689955    
 0.4415773937    
 0.4261705325    
 0.4338434076    
 0.4110350556    
 0.4185624690    
 0.6092790986    
 0.5740821144    
 0.5074681787    
 0.5900121279    
 0.5286011560    
 0.4036137933    
 0.5334000536    
 0.3963317839    
 0.5039241620    
 0.6207298457    
 0.7441240534    
 0.6497435517    
 0.6745603248    
 0.6883875930    
 0.7684212154    
 0.7433443084    
 0.7016874729    
 0.6881276161    
 0.3823557003    
 0.3892297195    
 0.4867865014    
 0.3757628264    
 0.3695038705    
 0.4770311156    
 0.7384561456    
 0.7862412226    
 0.7089192997    
 0.7464371211    
 0.7545299331    
 0.3636239698    
 0.3581536150    
 0.4692627365    
 0.7573122475    
 0.7900548875    
 0.7760543145    
 0.8000047356    
 0.3531045404    
 0.4606962360    
 0.3484703555    
 0.3442320402    
 0.4501962911    
 0.8956840840    
 0.8443388306    
 0.8281570204    
 0.8253420714    
 0.8144539111    
 0.8196114234    
 0.8181809262    
 0.8135731641    
 0.8075148416    
 0.3403664919    
 0.3368554315    
 0.3336922569    
 0.3308842807    
 0.3284470692    
 0.4372007185    
 0.3263912025    
 0.4340343099    
 0.3247084582    
 0.4310121910    
 0.3233717926    
 0.4280429205    
 0.4250312768    
 0.3223551450    
 0.4219007036    
 0.3216256221    
 0.4185887504    
 0.3211401374    
 0.4150758039    
 0.3209117160    
 0.4115547291    
 0.3209773039    
 0.4082265895    
 0.3212047520    
 0.4048826402    
 0.3214621618    
 0.4014755621    
 0.3218762791    
 0.3982501863    
 0.3225687894    
 0.3948882386    
 0.3233461239    
 0.3911009094    
 0.3240656530    
 0.3871667918    
 0.3252843288    
 0.3829446586    
 0.3274691805    
 0.3793347939    
 0.3751964363    
 0.3304693928    
 0.3709187926    
 0.3327341493    
 0.3345623931    
 0.3681221479    
 0.3638378159    
 0.3404214009    
 0.3593163566    
 0.3387135140    
 0.3566541515    
 0.3384643429    
 0.3546361975    
 0.3410777922    
 0.3447520841    
 0.3475072143    
 0.3411766360    
 0.3440376269    
 0.7392893955    
 0.7235843483    
 0.6641126606    
 0.7343345169    
 0.4472505172    
 0.4547316629    
 0.4620470999    
 0.7652528444    
 0.4321055550    
 0.4396815564    
 0.4170704410    
 0.4245639598    
 0.4022647571    
 0.4096328881    
 0.6327208063    
 0.6011573977    
 0.4691405812    
 0.5551312675    
 0.5021840462    
 0.5020404229    
 0.4739413027    
 0.4859292284    
 0.3949862723    
 0.5505859695    
 0.3878231058    
 0.5120162053    
 0.5817854954    
 0.7465649402    
 0.6448598743    
 0.6290636232    
 0.7808907830    
 0.6071053804    
 0.7798759437    
 0.6597830358    
 0.6528706078    
 0.3739737121    
 0.4895081460    
 0.3808064049    
 0.3673690947    
 0.3610409583    
 0.4790642537    
 0.7871722789    
 0.6838591028    
 0.6698833602    
 0.8138890699    
 0.7075872685    
 0.6978723407    
 0.3550369566    
 0.3493969344    
 0.4729828072    
 0.8062364229    
 0.7157693567    
 0.7379863309    
 0.7258949233    
 0.8270339145    
 0.8387958862    
 0.3441461864    
 0.4667121590    
 0.3392918656    
 0.3348244453    
 0.4584151088    
 0.8667494976    
 0.8752405882    
 0.8669173075    
 0.8761240773    
 0.8671125609    
 0.8761976793    
 0.8670093667    
 0.8769499420    
 0.8693303019    
 0.8854446457    
 0.8636951318    
 0.8727463277    
 0.8562539102    
 0.8964005637    
 0.8666180259    
 0.8541938669    
 0.8500537738    
 0.8949129243    
 0.8477939384    
 0.8939473352    
 0.8458750578    
 0.8926238301    
 0.8908401341    
 0.8438220633    
 0.8413240398    
 0.8882785906    
 0.8378249822    
 0.8840041925    
 0.8323669799    
 0.8256389243    
 0.8745373634    
 0.8283836705    
 0.8807538286    
 0.8354017456    
 0.8814967001    
 0.8804059740    
 0.8292258308    
 0.8331951799    
 0.8784415237    
 0.8284467727    
 0.8736096877    
 0.8673854296    
 0.8172186890    
 0.8161972902    
 0.8729056329    
 0.8704918992    
 0.8149511609    
 0.7899515198    
 0.8688266979    
 0.7876197014    
 0.7820778515    
 0.8593860501    
 0.7777696692    
 0.8616512786    
 0.7746321646    
 0.8587535556    
 0.7688425988    
 0.7625756011    
 0.8536806824    
 0.8471527401    
 0.7563863194    
 0.7482848966    
 0.3307240930    
 0.3269695303    
 0.3235459052    
 0.3204485995    
 0.3176813371    
 0.4475217050    
 0.3152494240    
 0.4449641405    
 0.3131513312    
 0.4424881828    
 0.3113748782    
 0.4400342821    
 0.3099012674    
 0.4375322442    
 0.4349244063    
 0.3087082802    
 0.4321744597    
 0.3077724150    
 0.4292753331    
 0.3070805008    
 0.4262767667    
 0.3066294778    
 0.4232640852    
 0.3063895047    
 0.4202522001    
 0.3063064458    
 0.4172095420    
 0.3063734563    
 0.4141632582    
 0.3066255564    
 0.4110885595    
 0.3070451931    
 0.4078722420    
 0.3075878630    
 0.4044933370    
 0.3083538014    
 0.4009921728    
 0.3095474720    
 0.3974972214    
 0.3939844029    
 0.3112059136    
 0.3903868671    
 0.3130155059    
 0.3148057431    
 0.3869996704    
 0.3835998120    
 0.3171131293    
 0.3799121511    
 0.3187365409    
 0.3763329716    
 0.3193522023    
 0.3723841909    
 0.3208149980    
 0.3645198785    
 0.3235102156    
 0.3641028783    
 0.3278173677    
 0.3596833850    
 0.3270186872    
 0.3584272713    
 0.3340781942    
 0.3555705244    
 0.3339304001    
 0.3546394944    
 0.3356376471    
 0.3548491740    
 0.3423748324    
 0.3403000279    
 0.3388136109    
 0.3373093246    
 0.7495191442    
 0.6774885841    
 0.7064450191    
 0.4378198715    
 0.4451058456    
 0.7646260787    
 0.7542728829    
 0.4084026749    
 0.4157295072    
 0.4230902491    
 0.4304655871    
 0.3939011354    
 0.4011219855    
 0.6225142014    
 0.4522808276    
 0.5243147496    
 0.4592791772    
 0.4674727991    
 0.4774753146    
 0.5732255214    
 0.3867577563    
 0.3797129908    
 0.5242183110    
 0.7778224113    
 0.4850840518    
 0.7857521837    
 0.5690715533    
 0.5470924612    
 0.5887151264    
 0.6042466593    
 0.8079659583    
 0.6160048657    
 0.6139357428    
 0.4922077874    
 0.3727913225    
 0.3594379392    
 0.3660215224    
 0.4787942527    
 0.8231036528    
 0.6240450375    
 0.8320975398    
 0.6465180584    
 0.6348046815    
 0.3530807395    
 0.3469938207    
 0.4742183249    
 0.8494383983    
 0.6669499751    
 0.6573754487    
 0.6859692755    
 0.8602062579    
 0.8710150443    
 0.6762675441    
 0.3412198471    
 0.3357933587    
 0.4706487063    
 0.3307344027    
 0.4649714263    
 0.7401153917    
 0.7436876170    
 0.7423216271    
 0.7492177805    
 0.7537217711    
 0.7556048885    
 0.7530957592    
 0.7663676622    
 0.7625355418    
 0.7625490123    
 0.7719388781    
 0.7754040047    
 0.7713425422    
 0.7815593719    
 0.7864722614    
 0.7851314044    
 0.7945067224    
 0.7970714360    
 0.8042193614    
 0.8014094814    
 0.7939025123    
 0.8119254925    
 0.8089282133    
 0.8011984033    
 0.8203094292    
 0.8169063066    
 0.8088649949    
 0.8313486564    
 0.8265227179    
 0.8174406441    
 0.8184270442    
 0.8455708284    
 0.8143742569    
 0.8230277560    
 0.8126038145    
 0.8514358865    
 0.8110208894    
 0.8619780599    
 0.8267555411    
 0.8205204903    
 0.8594158250    
 0.8259109752    
 0.8627084246    
 0.8718965741    
 0.8328391126    
 0.8353297772    
 0.8237554852    
 0.8701147533    
 0.8301496320    
 0.8381219343    
 0.8727230705    
 0.8769086660    
 0.8390891611    
 0.8324827241    
 0.8383247902    
 0.8748625630    
 0.8345886359    
 0.8432985026    
 0.8828401261    
 0.8446159632    
 0.8378873987    
 0.8787052328    
 0.8437128059    
 0.8806911870    
 0.8397265158    
 0.8484360974    
 0.8841627102    
 0.8495492135    
 0.8885527850    
 0.8424523417    
 0.8523019927    
 0.8438162022    
 0.8858071764    
 0.8932022413    
 0.8481929442    
 0.8523400125    
 0.8434133041    
 0.8862533587    
 0.8369099984    
 0.8772385437    
 0.8369635663    
 0.8457905945    
 0.8454602902    
 0.8846521314    
 0.8431045395    
 0.8524654478    
 0.8935215173    
 0.8535113304    
 0.8457487823    
 0.8883211559    
 0.8450394841    
 0.8507370647    
 0.8516462260    
 0.8881218187    
 0.8920040402    
 0.8469030644    
 0.8548733729    
 0.9051893682    
 0.8352387261    
 0.9125227814    
 0.8316002403    
 0.8381554003    
 0.9149500178    
 0.8294888380    
 0.8385942068    
 0.9160989081    
 0.8293810384    
 0.8379164284    
 0.9166851483    
 0.8377754738    
 0.8288677828    
 0.9170590968    
 0.8286842523    
 0.8372876734    
 0.9174088195    
 0.8370277181    
 0.8278866389    
 0.9180598771    
 0.8366954748    
 0.9194851918    
 0.8277110608    
 0.8369354741    
 0.8278373826    
 0.9228820478    
 0.8372717761    
 0.9303693654    
 0.8383709784    
 0.8280301659    
 0.8270761261    
 0.9164585492    
 0.8287954796    
 0.9252076964    
 0.8263674950    
 0.8319253614    
 0.8206548931    
 0.9115461611    
 0.8242631333    
 0.9227896551    
 0.8212598606    
 0.8261420057    
 0.9301317082    
 0.8158600961    
 0.8186424731    
 0.8119655084    
 0.9321794076    
 0.8155473708    
 0.8094194721    
 0.9327311516    
 0.8110338646    
 0.9322913365    
 0.8071866205    
 0.8132458715    
 0.9312095146    
 0.8048921949    
 0.8057890050    
 0.7991006626    
 0.9296016592    
 0.8023239238    
 0.8086448439    
 0.8018888925    
 0.9273090165    
 0.7945285056    
 0.9241718922    
 0.7964477859    
 0.7891727207    
 0.9225916892    
 0.9225132626    
 0.7940037671    
 0.7873662017    
 0.9214901233    
 0.7876885639    
 0.7842346218    
 0.7901885259    
 0.9196446455    
 0.7820190603    
 0.9169277414    
 0.7757373698    
 0.7765920091    
 0.9136664813    
 0.7715138950    
 0.9118006106    
 0.9104170143    
 0.7636949450    
 0.7634312729    
 0.7686541219    
 0.9077408436    
 0.7500914561    
 0.7429437592    
 0.9037012989    
 0.8998445395    
 0.7371667527    
 0.8965164867    
 0.7245963891    
 0.7316177914    
 0.8919538012    
 0.8862814851    
 0.7101274164    
 0.7127009965    
 0.8794544738    
 0.6954236857    
 0.7037103022    
 0.3260456647    
 0.3217148856    
 0.3177218967    
 0.3140471674    
 0.3106779847    
 0.3076097336    
 0.4564045671    
 0.3048424161    
 0.4545271332    
 0.3023750582    
 0.4526954566    
 0.3002015538    
 0.4508416746    
 0.2983099882    
 0.4489077280    
 0.4468506550    
 0.2966848522    
 0.4446480554    
 0.2953097070    
 0.4422990081    
 0.2941703137    
 0.4398256484    
 0.2932562825    
 0.4372672121    
 0.2925542693    
 0.4346548128    
 0.2920429329    
 0.4319977957    
 0.2917061802    
 0.4293020475    
 0.2915432728    
 0.4265685893    
 0.2915519930    
 0.4237731833    
 0.2917202733    
 0.4208895350    
 0.2920627384    
 0.4179186985    
 0.2926397569    
 0.4148902045    
 0.2934942952    
 0.4118271456    
 0.2945754201    
 0.4087309852    
 0.2957988144    
 0.4056463830    
 0.4025807952    
 0.2971782528    
 0.3994447203    
 0.2985523107    
 0.3962078885    
 0.2996846417    
 0.3927531372    
 0.3008806171    
 0.3886319793    
 0.3025936296    
 0.3851217977    
 0.3048554088    
 0.3823579606    
 0.3067352955    
 0.3796722267    
 0.3090385114    
 0.3773104502    
 0.3114231970    
 0.3750957834    
 0.3131095451    
 0.3730040468    
 0.3157185378    
 0.3688198221    
 0.3175578529    
 0.3641256996    
 0.3178788034    
 0.3611054326    