# vtk DataFile Version 3.0
./plots/steadyStateVorticity.vtk
ASCII
DATASET UNSTRUCTURED_GRID

POINTS   33796 double
  19.95112420      0.4778387620E-01   0.000000000    
  19.96179710      0.9531861830       0.000000000    
 0.1488662850      0.3252639740       0.000000000    
 0.1604675090      0.3305391960       0.000000000    
 0.1354653540      0.3273625450       0.000000000    
 0.1169132700      0.3293580160       0.000000000    
 0.1012292930      0.3232811960       0.000000000    
 0.1925822220      0.3171747020       0.000000000    
 0.1756161410      0.3199301320       0.000000000    
 0.1469606340      0.3399416610       0.000000000    
 0.1601446360      0.3434853150       0.000000000    
 0.1582880910      0.3149875490       0.000000000    
 0.1430455690      0.3130370420       0.000000000    
 0.1269564270      0.3128246700       0.000000000    
 0.1299396260      0.3431641140       0.000000000    
 0.1103911880      0.3115607590       0.000000000    
 0.1142396020      0.3482591030       0.000000000    
 0.1000778410      0.3383571760       0.000000000    
 0.9414935660E-01  0.3102351100       0.000000000    
 0.7806870490E-01  0.3085874530       0.000000000    
 0.8457984260E-01  0.3264950220       0.000000000    
 0.6596281210E-01  0.3200911770       0.000000000    
 0.6457945240E-01  0.3055048540       0.000000000    
 0.5006657490E-01  0.3107153710       0.000000000    
 0.3867795220E-01  0.3212741050       0.000000000    
 0.3263764790E-01  0.3085470340       0.000000000    
 0.2201228840      0.2999397410       0.000000000    
 0.2213671920      0.3141572120       0.000000000    
 0.2313745810      0.3032063370       0.000000000    
 0.2059801330      0.3247496700       0.000000000    
 0.2053122100      0.3049877470       0.000000000    
 0.1865155340      0.3029791850       0.000000000    
 0.1892826840      0.3329253740       0.000000000    
 0.1728415510      0.3389290060       0.000000000    
 0.1691302720      0.3014766540       0.000000000    
 0.1524300930      0.2993998760       0.000000000    
 0.1361110340      0.2981435580       0.000000000    
 0.1535932820      0.3527450650       0.000000000    
 0.1196942890      0.2971973860       0.000000000    
 0.1258218670      0.3572042280       0.000000000    
 0.9914621440E-01  0.3557741330       0.000000000    
 0.1033472000      0.2961360990       0.000000000    
 0.6830010310E-01  0.3380507670       0.000000000    
 0.8731112190E-01  0.2950094190       0.000000000    
 0.7197879020E-01  0.2938645050       0.000000000    
 0.8435466190E-01  0.3463881800       0.000000000    
 0.5041891400E-01  0.3309064680       0.000000000    
 0.5703536570E-01  0.2940084950       0.000000000    
 0.3543797510E-01  0.3325074660       0.000000000    
 0.4156918600E-01  0.2943548390       0.000000000    
 0.2609981910E-01  0.2934513950       0.000000000    
 0.1459199960E-01  0.3076388070       0.000000000    
 0.1365285480E-01  0.2912054600       0.000000000    
-0.1135166410E-01  0.2987795870       0.000000000    
 0.1588792680E-02  0.2954203140       0.000000000    
 0.2818089050      0.3136985500       0.000000000    
 0.2419327370      0.3177763260       0.000000000    
 0.2444130060      0.2948658480       0.000000000    
 0.2631921140      0.3040728230       0.000000000    
 0.1967622980      0.2877467560       0.000000000    
 0.2231833810      0.3341162210       0.000000000    
 0.2134468990      0.2880402280       0.000000000    
 0.2287958830      0.2893026300       0.000000000    
 0.2039053570      0.3447138550       0.000000000    
 0.1846259040      0.3513913580       0.000000000    
 0.1793904800      0.2864984110       0.000000000    
 0.1455143960      0.2837410670       0.000000000    
 0.1623018200      0.2850754030       0.000000000    
 0.1668649160      0.3544335300       0.000000000    
 0.1402160470      0.3559921240       0.000000000    
 0.1289017310      0.2826864560       0.000000000    
 0.1135709860      0.3649035520       0.000000000    
 0.1124168440      0.2817667910       0.000000000    
 0.8029606210E-01  0.2801207390       0.000000000    
 0.9616616650E-01  0.2808938450       0.000000000    
 0.5491779490E-01  0.3486210610       0.000000000    
 0.6481364330E-01  0.2797004390       0.000000000    
 0.8437175630E-01  0.3636668340       0.000000000    
 0.4001261940E-01  0.3449200850       0.000000000    
 0.4951135210E-01  0.2796320400       0.000000000    
 0.3439488050E-01  0.2794621660       0.000000000    
 0.2520212430E-01  0.3235203950       0.000000000    
 0.2001389060E-01  0.2791260790       0.000000000    
-0.3780576340E-02  0.3117613420       0.000000000    
 0.6069455650E-02  0.2800388280       0.000000000    
-0.2304087910E-01  0.2925599090       0.000000000    
-0.9667674150E-02  0.2826331290       0.000000000    
-0.4665510100E-01  0.2877770510       0.000000000    
-0.3466046450E-01  0.2831535530       0.000000000    
-0.2284197240E-01  0.2785393450       0.000000000    
 0.3014408380      0.3085575780       0.000000000    
 0.2657241570      0.3290553810       0.000000000    
 0.2844933870      0.2903041920       0.000000000    
 0.3055195040      0.2891389830       0.000000000    
 0.2062753230      0.2725826950       0.000000000    
 0.2229800210      0.2738183820       0.000000000    
 0.2609720600      0.2788874830       0.000000000    
 0.2215696280      0.3580514230       0.000000000    
 0.2441033930      0.3449382160       0.000000000    
 0.2400801170      0.2760882560       0.000000000    
 0.1986168200      0.3664216430       0.000000000    
 0.1892404330      0.2715510840       0.000000000    
 0.1550427630      0.2692168250       0.000000000    
 0.1538469660      0.3689512930       0.000000000    
 0.1720809330      0.2703832870       0.000000000    
 0.1381741570      0.2681697930       0.000000000    
 0.1312456580      0.3728982500       0.000000000    
 0.3196157870      0.2992145720       0.000000000    
 0.1214776810      0.2672701120       0.000000000    
 0.8880331150E-01  0.2658156160       0.000000000    
 0.6978613960E-01  0.3555716280       0.000000000    
 0.1049953610      0.2664842890       0.000000000    
 0.8426617900E-01  0.3794564900       0.000000000    
 0.9842102690E-01  0.3724333180       0.000000000    
 0.4487023880E-01  0.3577180980       0.000000000    
 0.7294893110E-01  0.2653311520       0.000000000    
 0.5740829300E-01  0.2650759790       0.000000000    
 0.4215937130E-01  0.2649714160       0.000000000    
 0.2327704830E-01  0.3418237960       0.000000000    
 0.7023833460E-02  0.3290733810       0.000000000    
 0.2728035910E-01  0.2649668000       0.000000000    
 0.1272549920E-01  0.2653211550       0.000000000    
-0.2199539390E-01  0.3111089270       0.000000000    
-0.1937459060E-02  0.2661940750       0.000000000    
-0.3805459380E-01  0.3007485760       0.000000000    
-0.1645591490E-01  0.2665133170       0.000000000    
-0.3074433780E-01  0.2676535270       0.000000000    
-0.5926149780E-01  0.2841152470       0.000000000    
-0.4707505400E-01  0.2714323070       0.000000000    
-0.6381835590E-01  0.2688286870       0.000000000    
-0.7683133560E-01  0.2672127820       0.000000000    
 0.2945337670      0.3366323690       0.000000000    
 0.2995872570      0.2713265310       0.000000000    
 0.2159148250      0.2578843580       0.000000000    
 0.2796415830      0.2666148560       0.000000000    
 0.2650058510      0.2598967790       0.000000000    
 0.2431750220      0.3732432670       0.000000000    
 0.2501286600      0.2606354970       0.000000000    
 0.2329333150      0.2592779510       0.000000000    
 0.2161769510      0.3845283470       0.000000000    
 0.1988643700      0.2567366540       0.000000000    
 0.1762019810      0.3700238920       0.000000000    
 0.1817082180      0.2556707920       0.000000000    
 0.1645538310      0.2546249450       0.000000000    
 0.1475001500      0.2536396030       0.000000000    
 0.1448255690      0.3864762360       0.000000000    
 0.3233594020      0.3224456720       0.000000000    
 0.3452540710      0.2995755030       0.000000000    
 0.3232162640      0.2763254140       0.000000000    
 0.1305978760      0.2527530350       0.000000000    
 0.7059396820E-01  0.3719853580       0.000000000    
 0.1138897560      0.2519773080       0.000000000    
 0.1128211290      0.3820289700       0.000000000    
 0.9683282650E-01  0.3881742750       0.000000000    
 0.8427017690E-01  0.3923103600       0.000000000    
 0.9743028150E-01  0.2513196800       0.000000000    
 0.5647236940E-01  0.3645377730       0.000000000    
 0.6543392390E-01  0.2504636470       0.000000000    
 0.8127036170E-01  0.2508054150       0.000000000    
 0.3159707740E-01  0.3579645930       0.000000000    
 0.8233584560E-02  0.3463759740       0.000000000    
 0.4992254540E-01  0.2502948790       0.000000000    
 0.3473776140E-01  0.2502874640       0.000000000    
 0.1984627550E-01  0.2504879350       0.000000000    
-0.1248383020E-01  0.3280221310       0.000000000    
 0.5110128960E-02  0.2509550280       0.000000000    
-0.3644388160E-01  0.3167334770       0.000000000    
-0.9587322030E-02  0.2515642810       0.000000000    
-0.2434529520E-01  0.2524142660       0.000000000    
-0.5453600120E-01  0.2992763920       0.000000000    
-0.3960491380E-01  0.2538413020       0.000000000    
-0.5537281470E-01  0.2546549980       0.000000000    
-0.7417358000E-01  0.2807679010       0.000000000    
-0.7063786050E-01  0.2548659780       0.000000000    
-0.8543640640E-01  0.2569929610       0.000000000    
-0.1008386640      0.2597752910       0.000000000    
 0.2688046290      0.3573177250       0.000000000    
 0.2425428000      0.2444004660       0.000000000    
 0.2255548220      0.2431758350       0.000000000    
 0.2394366250      0.4059288390       0.000000000    
 0.2084342810      0.2420400230       0.000000000    
 0.1891024390      0.3891555590       0.000000000    
 0.2590447710      0.2455847800       0.000000000    
[...]
POINT_DATA   33796
SCALARS psi double
LOOKUP_TABLE default
 -1.719764832    
  1.755810523    
  2.225288051    
  2.386937569    
  2.299239077    
  2.372471343    
  2.186911225    
  1.944549859    
  2.041219319    
  2.693922510    
  2.799440822    
  1.893336524    
  1.839013892    
  1.840420379    
  2.806155161    
  1.808699502    
  2.976986446    
  2.668881336    
  1.774174678    
  1.729487104    
  2.297800348    
  2.102824920    
  1.637325551    
  1.810073869    
  2.153028570    
  1.749000161    
  1.382462503    
  1.833537449    
  1.480162052    
  2.177901905    
  1.550448415    
  1.496471753    
  2.447204476    
  2.647145899    
  1.457877440    
  1.400344861    
  1.368496155    
  3.098812935    
  1.346421498    
  3.257044895    
  3.225694534    
  1.320477708    
  2.675193306    
  1.292092567    
  1.262592655    
  2.933277171    
  2.455223070    
  1.273676735    
  2.514359468    
  1.291683566    
  1.269391684    
  1.727395926    
  1.202299844    
  1.454479927    
  1.341898298    
  1.785550007    
  1.937381401    
  1.208815710    
  1.491028068    
  1.007230104    
  2.466304746    
  1.007903856    
  1.040258370    
  2.813916722    
  3.037506750    
 0.9763991191    
 0.9054848720    
 0.9396917953    
  3.144462514    
  3.209413998    
 0.8799208589    
  3.509994940    
 0.8584017934    
 0.8205767775    
 0.8380787143    
  3.019643367    
 0.8139554609    
  3.486748325    
  2.909217677    
 0.8182988485    
 0.8191286733    
  2.230569434    
 0.8140908263    
  1.866836536    
 0.8487685222    
  1.259646528    
 0.9375799749    
  1.114996685    
 0.9629267041    
 0.8113597015    
  1.614541512    
  2.283221813    
  1.042844539    
 0.9950292966    
 0.5207668772    
 0.5516605313    
 0.6931589017    
  3.229440917    
  2.799466310    
 0.6151361948    
  3.510280545    
 0.4964476407    
 0.4388370230    
  3.616895539    
 0.4677359720    
 0.4134945382    
  3.756374172    
  1.306888449    
 0.3925867028    
 0.3608751462    
  3.234793519    
 0.3750207084    
  3.995070976    
  3.760363003    
  3.316190740    
 0.3522734326    
 0.3506713719    
 0.3535526852    
  2.817280913    
  2.416433897    
 0.3592749068    
 0.3761873062    
  1.852657840    
 0.4095378241    
  1.527152514    
 0.4247442574    
 0.4662610394    
  1.002115557    
 0.5925040673    
 0.5145534101    
 0.4667907078    
  2.508916151    
 0.4333282166    
 0.4938343167E-01
 0.2943129446    
 0.8882236912E-01
  3.705717328    
 0.1197103426    
 0.8527800223E-01
  4.087259367    
 0.2119476408E-01
  3.637419698    
-0.4465498946E-02
-0.2962446734E-01
-0.5306348901E-01
  4.188154570    
  2.042106658    
  1.303099532    
 0.5790872392    
-0.7359306740E-01
  3.761596381    
-0.9085530916E-01
  4.061198214    
  4.269978586    
  4.412356292    
-0.1046450274    
  3.529312598    
-0.1185197392    
-0.1141742306    
  3.331083813    
  2.970247300    
-0.1176600357    
-0.1119710731    
-0.9992562997E-01
  2.390698199    
-0.7958550288E-01
  2.038446416    
-0.5496147088E-01
-0.2273431193E-01
  1.485528917    
 0.2794627213E-01
 0.5881928739E-01
 0.8996713373    
 0.7015892572E-01
 0.1426917215    
 0.2357723896    
  3.181660949    
-0.3914041152    
-0.4220638921    
  4.767908960    
-0.4499689695    
  4.247573039    
-0.3618747225    
-0.4746382676    
-0.4975714836    
  4.253984292    
-0.2937299722    
  2.468388673    
  3.046337931    
-0.1172957526    
-0.1929099543    
-0.1278432324    
 0.2582389083    
-0.5191945957    
-0.5390303657    
  4.429605479    
-0.5564934967    
  1.666341674    
  4.630058845    
  4.755363585    
-0.5710459429    
  4.272671911    
  4.050730814    
  3.798585350    
-0.5820279091    
  3.349362176    
-0.5886942743    
-0.5905449748    
-0.5873727212    
-0.5787579325    
  2.897910426    
-0.5639775119    
  2.413317538    
-0.5430918331    
-0.5157385590    
  1.961229693    
-0.4801847609    
-0.4415782688    
  1.402549017    
 0.7104180139    
-0.3504242133    
-0.4037865451    
-0.2703522652    
-0.1636002692    
 0.2929038351    
 0.4567111297E-01
 0.5438469566E-01
 0.8102168656E-01
  4.193623914    
  5.058086579    
  5.357020874    
-0.8942123850    
-0.8634058636    
-0.9204253918    
-0.9436255188    
  4.957959955    
-0.8205606725    
  3.621146361    
-0.7630331988    
-0.6890154613    
-0.7100803038    
  3.520387214    
-0.9648717869    
 -1.003773238    
  4.872828170    
-0.9848930566    
 0.7926645770    
  2.296180570    
-0.6769091760    
  1.453325361    
 -1.021156135    
  5.070324729    
  5.200635354    
  4.766778361    
 -1.036465718    
  4.299924003    
 -1.048984448    
  3.803111381    
 -1.057931841    
 -1.062614488    
 -1.062544441    
 -1.057346353    
  3.365381010    
  2.880688688    
 -1.046628530    
 -1.030046846    
  2.423182165    
 -1.007239168    
-0.9776533233    
  1.898214567    
-0.9416888388    
  1.301401428    
-0.9000324118    
-0.8489204118    
-0.7815828494    
-0.6935779843    
 0.7101857229    
-0.5789995430    
 0.6436780300    
-0.4769785369    
 0.5620476700    
 0.5148940941    
-0.3863710097    
 0.4225224755    
-0.1875330656    
 0.3233604713    
-0.1761208296    
 0.2747389917    
-0.7828795122E-01
 0.5625848587E-01
 0.1721706348    
 0.6373685800E-01
  5.154670873    
 -1.366033429    
 -1.391152129    
  5.631033534    
  5.712160697    
  5.572553946    
 -1.334888725    
  4.693902909    
 -1.296963862    
  4.113738658    
 -1.259614070    
 -1.412722873    
 -1.432284106    
  5.571975976    
 -1.450731230    
  3.417671004    
 -1.240465196    
 -1.269052582    
 -1.117453558    
-0.3301747387    
  2.439894936    
 0.3912699942    
 -1.468415863    
 -1.485239274    
  5.590258716    
  5.686382753    
  5.265499928    
 -1.500774623    
  4.655599219    
 -1.514365109    
  4.271176231    
 -1.525211017    
 -1.532499195    
 -1.535528405    
  3.809801375    
 -1.533760983    
  3.351258713    
 -1.526771002    
  2.875106175    
 -1.514178187    
 -1.495575876    
  2.381630334    
 -1.470486269    
 -1.438523572    
  1.824517439    
 -1.399343848    
 -1.351630018    
 -1.292640156    
 -1.219762982    
  1.219653142    
 -1.132329921    
  1.161977612    
 -1.037524443    
  1.094701868    
  1.026717768    
-0.9409683998    
 0.9520463273    
-0.8286662038    
 0.8616099629    
-0.7293325711    
 0.7557312426    
-0.6431960037    
 0.5588121616    
-0.5266565532    
 0.5815273831    
-0.3562319291    
 0.5253973592    
-0.3263374447    
 0.3160466096    
-0.2307290730    
 0.3385278307    
-0.1383571505    
 0.3669323164    
 0.6371032430E-01
 0.3115148587E-01
 0.8255249920E-02
  5.602980449    
  5.472463804    
 -1.812219462    
 -1.783650714    
  5.473049247    
  5.134528693    
 -1.900449974    
 -1.882594013    
 -1.839473885    
 -1.862726105    
  5.917486719    
  4.510956912    
 -1.761643829    
 -1.757997134    
 -1.472749433    
 -1.784259658    
  3.750167931    
  1.112692263    
 -1.933574506    
 -1.917281403    
 -1.949407545    
  6.026500370    
  5.793357388    
 -1.304982500    
-0.6695128114    
  5.259024594    
 -1.964543331    
  4.737432019    
 -1.978484819    
  3.193096641    
  1.819868650    
  2.930417480    
  2.432750564    
  2.474844272    
 -1.990526902    
 -1.999841968    
  4.268937427    
 -2.005599066    
 -2.007066821    
  3.810613333    
  2.843269231    
 -2.003653613    
  3.339705300    
 -1.994873994    
 -1.980274518    
  2.854591100    
 -1.959367010    
 -1.931633301    
  2.326331481    
 -1.896537648    
 -1.853344495    
 -1.800931994    
 -1.738155890    
  1.749996498    
 -1.664786920    
  1.683570671    
 -1.582807064    
  1.620581898    
 -1.495168394    
  1.554870222    
  1.484496122    
 -1.402006339    
  1.405519218    
 -1.307071586    
  1.314675500    
 -1.214585501    
  1.206938284    
 -1.116414392    
  1.122873156    
 -1.005222891    
  1.061881095    
-0.9094420659    
 0.9677832717    
-0.8275015826    
 0.8875296533    
-0.7338374836    
 0.8405672865    
-0.6240102396    
 0.7386442365    
-0.5390297733    
 0.6180722559    
-0.4836804480    
 0.5228896379    
-0.3590298802    
 0.3331445536    
-0.1854268394    
 0.3956322651    
 0.7716843471E-01
 0.8085316233E-01
 0.1090914473    
  4.301115077    
  4.840512298    
  3.538089319    
  5.801209845    
 -2.315413339    
  5.299200603    
 -2.255109175    
 -2.293239905    
 -2.271871304    
 -2.185213539    
 -2.240583198    
  4.872330235    
 -2.335668698    
 -2.369590834    
 -2.353494461    
 -2.399563164    
 -2.384778925    
  6.004053671    
  6.188502988    
 -1.808588225    
-0.3875437152E-01
 -1.656513766    
 -2.414114818    
  5.840923337    
 -2.428346196    
  5.244538774    
 0.5619312021    
  3.954909410    
  1.074420134    
  1.426477871    
  1.492576958    
  3.804508900    
  2.467784353    
  1.363137215    
  1.204697251    
 -2.454379980    
 -2.441944734    
  4.742390883    
 -2.464931268    
 -2.472759540    
  4.268774425    
  1.957815905    
  3.216545833    
  1.324280963    
  1.852174430    
  1.815444013    
 -2.477011729    
 -2.476912224    
  3.803628703    
  1.695601332    
  2.216143992    
  2.051980486    
  2.279105486    
 -2.471801190    
  3.323520546    
 -2.461108863    
 -2.444299470    
  2.815504524    
  2.522973875    
  2.159399770    
  1.917239751    
  1.980482536    
  1.758593403    
  2.071432173    
  2.200432364    
  2.255430594    
  2.282463036    
 -2.420836104    
 -2.390186885    
 -2.351826076    
 -2.305227397    
 -2.249976521    
  2.264869357    
 -2.186114035    
  2.203356645    
 -2.114518351    
  2.143325632    
 -2.036811861    
  2.082364539    
  2.017855327    
 -1.954439215    
  1.947788035    
 -1.868904452    
  1.870550890    
 -1.781948249    
  1.786191723    
 -1.692914016    
  1.702682003    
 -1.599928284    
  1.627061098    
 -1.507384244    
  1.550621257    
 -1.419840484    
  1.471854530    
 -1.332484984    
  1.399627398    
 -1.240425104    
  1.321569267    
 -1.150326032    
  1.227900192    
 -1.067596048    
  1.129522830    
-0.9728657962    
  1.021422362    
-0.8489121488    
 0.9340662839    
 0.8273042323    
-0.6994776357    
 0.7161157924    
-0.5777079684    
-0.4750566355    
 0.6546220749    
 0.5402826901    
-0.2385788265    
 0.4187242953    
-0.2567796241    
 0.3590702795    
-0.2340916483    
 0.3149873781    
-0.1199061704    
 0.2774185997E-01
 0.1389181679    
-0.5663620881E-01
 0.5216805578E-01
  2.935609842    
  2.316247869    
  4.694277594    
  5.217179063    
 -2.774506908    
 -2.756606833    
 -2.739237632    
  5.035862809    
 -2.809681383    
 -2.792603017    
 -2.839484340    
 -2.825217238    
 -2.866269268    
 -2.853029373    
  5.629173711    
  5.996692217    
 -2.721707032    
 -1.098819161    
 -2.550359674    
 -2.254052275    
 -2.747932891    
 -2.518071585    
 -2.879394713    
  6.316722174    
 -2.892407855    
  5.836719659    
-0.5764607123    
  4.588616214    
 0.3613086117    
 0.2027601368    
  4.601210926    
-0.1281952747    
  3.805367183    
 0.2394550005    
 0.3078860587    
 -2.917270981    
  5.244767222    
 -2.905146666    
 -2.928241762    
 -2.937333021    
  4.738419146    
  3.634527351    
 0.4052420089    
 0.2680822514    
  3.825690471    
 0.5391169245    
 0.5372785285    
 -2.943692673    
 -2.946435248    
  4.265830319    
  3.304199833    
 0.5361487906    
 0.7275280392    
 0.6019262617    
  3.579449343    
  3.651962597    
 -2.944727271    
  3.791679012    
 -2.937829167    
 -2.925089169    
  3.296465817    
  1.208672413    
  1.465509570    
  1.246947366    
  1.534731056    
  1.300351675    
  1.590160002    
  1.352558353    
  1.675110518    
  1.479263273    
  1.974086637    
  1.384315932    
  1.684264664    
  1.231652100    
  2.508073966    
  1.589193334    
  1.253205918    
  1.164086168    
  2.551101696    
  1.144213599    
  2.579389494    
  1.139575596    
  2.601273829    
  2.614067963    
  1.134114584    
  1.118535673    
  2.608962943    
  1.077626133    
  2.562042768    
 0.9898391186    
 0.8373175212    
  2.372616458    
 0.9983234272    
  2.657877806    
  1.293249834    
  2.772628517    
  2.838770112    
  1.193203421    
  1.413725793    
  2.887183293    
  1.369427005    
  2.861645964    
  2.813338023    
  1.148912209    
  1.226246027    
  3.115049016    
  3.172432985    
  1.338703416    
 0.6842765212    
  3.281668879    
 0.7188079893    
 0.6830720701    
  3.188143186    
 0.6971126334    
  3.455004082    
 0.7607139640    
  3.563165722    
 0.7700028531    
 0.7855205060    
  3.621865657    
  3.654132985    
 0.8168680555    
 0.8008970751    
 -2.905921347    
 -2.879804607    
 -2.846312901    
 -2.805156771    
 -2.756251658    
  2.766959213    
 -2.699824879    
  2.714419831    
 -2.636553379    
  2.660549054    
 -2.567543511    
  2.605270078    
 -2.494050529    
  2.547181062    
  2.484941742    
 -2.417275613    
  2.417769076    
 -2.338275052    
  2.345842758    
 -2.257496894    
  2.271412131    
 -2.174789219    
  2.197739626    
 -2.090923521    
  2.124974278    
 -2.007608159    
  2.051589132    
 -1.924792120    
  1.978451846    
 -1.840884006    
  1.904349899    
 -1.756274124    
  1.824972783    
 -1.672510220    
  1.739776976    
 -1.585933134    
  1.650409432    
 -1.488878736    
  1.561281497    
  1.471216674    
 -1.379422421    
  1.377926784    
 -1.268125721    
 -1.161073205    
  1.291727237    
  1.204363479    
 -1.039598920    
  1.106583341    
-0.9443820941    
  1.012316846    
-0.8870859629    
 0.9047124411    
-0.8054941333    
 0.6672070952    
-0.6854293974    
 0.6807356879    
-0.5128302513    
 0.5571994924    
-0.5132687739    
 0.5382109704    
-0.2562968809    
 0.4649671811    
-0.2351290028    
 0.4543834200    
-0.1575835916    
 0.4771524482    
 0.8382728161E-01
 0.3709132861E-01
 0.5538511152E-02
-0.3030699888E-01
  1.530958502    
  2.768580137    
  1.763925736    
 -3.253615727    
 -3.236808212    
  4.370566777    
  3.570838674    
 -3.309348791    
 -3.296876435    
 -3.283531372    
 -3.269106457    
 -3.333039616    
 -3.321303065    
  4.835432413    
 -3.217255358    
 -2.072680768    
 -3.191805758    
 -3.115009724    
 -2.989369845    
  6.106784309    
 -3.344721684    
 -3.356388432    
  6.409531017    
  5.084398837    
 -2.943800264    
  5.049858712    
 -1.218736451    
 -1.617174060    
-0.9063949034    
-0.7182954234    
  4.775952410    
-0.9122528003    
-0.6976928087    
  5.809376978    
 -3.367975007    
 -3.390007040    
 -3.379296517    
  5.232525691    
  4.743053889    
-0.9647284286    
  4.600945958    
-0.8704505210    
-0.9336171444    
 -3.399566159    
 -3.407241521    
  4.733673165    
  4.582427202    
-0.8092149572    
-0.8281940817    
-0.7296148505    
  4.535410129    
  4.482372108    
-0.7800844400    
 -3.412160159    
 -3.413393467    
  4.258583275    
 -3.410041716    
  3.772533168    
 -2.345128748    
 -2.286699296    
 -2.309698401    
 -2.181662000    
 -2.092556298    
 -2.054161360    
 -2.108110837    
 -1.812662055    
 -1.900862549    
 -1.908292257    
 -1.680682187    
 -1.595208976    
 -1.691338910    
 -1.440260961    
 -1.316670444    
 -1.348238647    
 -1.099480467    
 -1.023954072    
-0.8220281214    
-0.9115942046    
 -1.113522811    
-0.6020519708    
-0.7012643687    
-0.9114257435    
-0.3604626864    
-0.4743071142    
-0.6949715193    
-0.5028298583E-01
-0.2020181393    
-0.4507308376    
-0.4244540815    
 0.3367783997    
-0.5384645488    
-0.2910592733    
-0.5924908170    
 0.5249917813    
-0.6287514689    
 0.8309335415    
-0.1729370264    
-0.3574318738    
 0.7593246376    
-0.2024871967    
 0.8688537115    
  1.116677810    
 0.8210083733E-02
 0.7895524317E-01
-0.2582485152    
  1.087860154    
-0.6602831732E-01
 0.1667267676    
  1.179439422    
  1.268361001    
 0.1951325846    
 0.1162435632E-01
 0.1874736425    
  1.234892019    
 0.7576284093E-01
 0.3321172652    
  1.470438104    
 0.3777634367    
 0.1865121087    
  1.360312362    
 0.3625447394    
  1.438162243    
 0.2486436141    
 0.5080473339    
  1.557185915    
 0.5401830032    
  1.643752523    
 0.3433569300    
 0.6394772904    
 0.3878790234    
  1.600009013    
  1.816184868    
 0.5188972826    
 0.6470659401    
 0.3973488295    
  1.630351841    
 0.2137170472    
  1.413418652    
 0.2301349189    
 0.4647819682    
 0.4902340434    
  1.630048300    
 0.4143524121    
 0.6996288663    
  1.878514970    
 0.7348873829    
 0.5119520614    
  1.760762291    
 0.5080691973    
 0.6807798186    
 0.7353866527    
  1.773302734    
  1.893597309    
 0.5787466199    
 0.8467659482    
  2.263909794    
 0.2534290074    
  2.470582138    
 0.1320483984    
 0.3521366909    
  2.552701450    
 0.9673190385E-01
 0.3566075931    
  2.604900417    
 0.9895773208E-01
 0.3738401418    
  2.647813511    
 0.3801315388    
 0.1204117930    
  2.684397077    
 0.1200228149    
 0.3995056625    
  2.724520227    
 0.4055172822    
 0.1398919011    
  2.770047498    
 0.4367470301    
  2.837942388    
 0.1403429068    
 0.4623517730    
 0.1955380098    
  2.944797317    
 0.5258836288    
  3.114776539    
 0.5564739367    
 0.2072311381    
 0.2449390280    
  2.868400542    
 0.3420569303    
  3.092051712    
 0.2471042629    
 0.4103389765    
 0.1261647046    
  2.824087273    
 0.2810011079    
  3.135595796    
 0.1743613698    
 0.3284869416    
  3.327469258    
 0.5871672369E-01
 0.1548025630    
-0.2896591103E-01
  3.405738666    
 0.1084551980    
-0.6079801374E-01
  3.463366416    
 0.7670583276E-01
  3.505853874    
-0.7575080346E-01
 0.8927574034E-01
  3.543804995    
-0.8800425079E-01
 0.3758847795E-01
-0.1375423484    
  3.574835907    
-0.1048318373    
 0.6251087606E-01
-0.1531226881E-01
  3.600055372    
-0.2072988188    
  3.610834853    
-0.1074265575    
-0.2725217588    
  3.648848476    
  3.719517902    
-0.3058189692E-01
-0.2880689360    
  3.776763480    
-0.1586911676    
-0.2090845015    
 0.3563659957E-01
  3.823829123    
-0.1348662229    
  3.864143260    
-0.2288456794    
-0.5042346436E-01
  3.898050359    
-0.2838513862    
  3.955420963    
  4.025630933    
-0.1926958293    
-0.2735777944    
-0.1997234563    
  4.080774844    
-0.5011448501    
-0.5924452155    
  4.131294485    
  4.181554315    
-0.6240821087    
  4.247337272    
-0.6726953777    
-0.6349063200    
  4.304340141    
  4.362110604    
-0.6852428509    
-0.8297796632    
  4.420375889    
-0.6791319095    
-0.6576199677    
 -3.401290516    
 -3.386438195    
 -3.364916794    
 -3.336324555    
 -3.300471035    
 -3.257418643    
  3.259572227    
 -3.207518792    
  3.216746123    
 -3.151426901    
  3.170642001    
 -3.090064332    
  3.122090393    
 -3.024496451    
  3.070670054    
  3.015677738    
 -2.955759759    
  2.956742124    
 -2.884725909    
  2.894048892    
 -2.811982389    
  2.828518004    
 -2.737790298    
  2.761580562    
 -2.662412107    
  2.694160747    
 -2.586383370    
  2.626250904    
 -2.510033904    
  2.557771447    
 -2.433113254    
  2.488492165    
 -2.355457332    
  2.417254513    
 -2.277334182    
  2.342964655    
 -2.198033430    
  2.265659931    
 -2.115077340    
  2.186399758    
 -2.026534932    
  2.105906856    
 -1.933918756    
  2.024157571    
 -1.840082040    
  1.942711900    
  1.861728991    
 -1.744420530    
  1.777941219    
 -1.652476264    
  1.690373117    
 -1.572531529    
  1.595060935    
 -1.494087834    
  1.476964528    
 -1.401244469    
  1.380572248    
 -1.292383778    
  1.309305623    
 -1.199138473    
  1.239684586    
 -1.094202420    
  1.180266889    
-0.9881905709    
  1.124900175    
-0.9073134369    
  1.072322696    
-0.7980780902    
 0.9492088406    
-0.7159320801    
 0.8103312164    
-0.6858441672    
 0.7272777319    