# vtk DataFile Version 3.0
./plots/steadyStateSolution.vtk
ASCII
DATASET UNSTRUCTURED_GRID

POINTS   19057 double
   9.9676734600000003        3.1247420900000000E-002   0.00000000    
  0.54055699599999996       0.49552306099999999        0.00000000    
   9.4594539900000001       0.50516293700000003        0.00000000    
  0.47204418500000001       0.54013462400000001        0.00000000    
  0.47107301200000001       0.49956892800000002        0.00000000    
  0.51592418100000004       0.52340115899999995        0.00000000    
  0.51372514999999996       0.47195611100000001        0.00000000    
  0.47130452200000000       0.45948940300000002        0.00000000    
  0.56087410400000004       0.46959753199999998        0.00000000    
  0.57135099800000000       0.51667061800000003        0.00000000    
  0.60823141199999997       0.47430509399999998        0.00000000    
  0.62842929500000000       0.52048218599999996        0.00000000    
  0.65961320199999995       0.47699446600000001        0.00000000    
  0.68079448700000000       0.52266310800000004        0.00000000    
  0.71106952400000001       0.47932149499999999        0.00000000    
  0.73174783399999999       0.52526951799999999        0.00000000    
   9.5288692400000006       0.54257060700000004        0.00000000    
   9.5289308199999994       0.50239694800000001        0.00000000    
   9.4862865599999999       0.52915613299999997        0.00000000    
   9.4840764300000000       0.47771487200000001        0.00000000    
   9.5277904400000004       0.46194458799999999        0.00000000    
   9.4391415799999994       0.53092121900000000        0.00000000    
   9.4286842699999998       0.48383224600000002        0.00000000    
   9.3918555399999999       0.52605746300000000        0.00000000    
   9.3716602299999998       0.47995900200000002        0.00000000    
   9.3406522499999998       0.52359295600000000        0.00000000    
   9.3193781300000005       0.47822906199999998        0.00000000    
   9.2896328500000003       0.52205700700000002        0.00000000    
   9.2684232600000005       0.47678920499999999        0.00000000    
   9.2386612499999998       0.52028634500000004        0.00000000    
   9.2180680600000002       0.47451936700000003        0.00000000    
   9.1867261500000001       0.51692523000000001        0.00000000    
   9.1689324600000006       0.46996849800000001        0.00000000    
   9.1293868600000003       0.50870360000000003        0.00000000    
   9.1293786299999997       0.46087443000000000        0.00000000    
   9.0898616699999994       0.46995228800000000        0.00000000    
   9.0721107700000001       0.51687769600000000        0.00000000    
   9.0408838500000002       0.47443545199999998        0.00000000    
   9.0203958499999999       0.52009674699999997        0.00000000    
   8.9909584700000007       0.47648767100000000        0.00000000    
   8.9699401099999996       0.52146293200000005        0.00000000    
   8.9410328799999998       0.47734638899999998        0.00000000    
   8.9199210600000001       0.52199521599999998        0.00000000    
   8.8911929900000004       0.47765699800000000        0.00000000    
   8.8700775899999993       0.52217095899999999        0.00000000    
   8.8414087800000001       0.47774861499999999        0.00000000    
   8.8203002599999998       0.52221709800000005        0.00000000    
   8.7916484599999993       0.47776931500000003        0.00000000    
   8.7705434199999992       0.52222598300000000        0.00000000    
   8.7418954400000004       0.47777260500000002        0.00000000    
   8.7207911700000000       0.52222736000000003        0.00000000    
   8.6921432000000003       0.47777389199999998        0.00000000    
   8.6710381200000004       0.52223025599999995        0.00000000    
   8.6423863300000008       0.47778122099999998        0.00000000    
   8.6212772900000001       0.52224693400000000        0.00000000    
   8.5926088099999998       0.47781576500000000        0.00000000    
   8.5714895900000005       0.52231424599999998        0.00000000    
   8.5427648400000002       0.47793413899999998        0.00000000    
   8.5216329700000006       0.52252194699999999        0.00000000    
   8.4927466000000003       0.47825391499999997        0.00000000    
   8.4716431300000004       0.52304453900000003        0.00000000    
   8.4423034799999996       0.47898367300000000        0.00000000    
   8.4215009900000002       0.52420489000000003        0.00000000    
   8.3906511100000003       0.48053159299999998        0.00000000    
   8.3718086300000003       0.52673233799999997        0.00000000    
   8.3335767000000001       0.48427865900000000        0.00000000    
   8.3297225099999999       0.53290394699999999        0.00000000    
   8.2871929099999999       0.46709605300000001        0.00000000    
   8.2833387300000005       0.51572134100000000        0.00000000    
   8.2451067899999995       0.47326766199999998        0.00000000    
   8.2262643200000003       0.51946840699999997        0.00000000    
   8.1954144299999996       0.47579511000000002        0.00000000    
   8.1746119400000001       0.52101632700000000        0.00000000    
   8.1452722899999994       0.47695546100000002        0.00000000    
   8.1241688199999995       0.52174608499999997        0.00000000    
   8.0952824600000000       0.47747805300000001        0.00000000    
   8.0741505900000003       0.52206586099999996        0.00000000    
   8.0454258400000001       0.47768575299999999        0.00000000    
   8.0243066100000000       0.52218423300000005        0.00000000    
   7.9956381399999996       0.47775306400000001        0.00000000    
   7.9745291099999998       0.52221877500000002        0.00000000    
   7.9458773200000001       0.47776973900000003        0.00000000    
   7.9247722500000002       0.52222609300000000        0.00000000    
   7.8961243300000001       0.47777257000000001        0.00000000    
   7.8750201999999998       0.52222709400000000        0.00000000    
   7.8463728899999996       0.47777283799999998        0.00000000    
   7.8252689000000002       0.52222715399999997        0.00000000    
   7.7966216399999997       0.47777284500000000        0.00000000    
   7.7755176600000002       0.52222715500000005        0.00000000    
   7.7468703999999997       0.47777284500000000        0.00000000    
   7.7257664200000002       0.52222715500000005        0.00000000    
   7.6971191599999997       0.47777284500000000        0.00000000    
   7.6760151700000003       0.52222715500000005        0.00000000    
   7.6473679099999998       0.47777284500000000        0.00000000    
   7.6262639300000004       0.52222715500000005        0.00000000    
   7.5976166699999998       0.47777284500000000        0.00000000    
   7.5765126800000004       0.52222715500000005        0.00000000    
   7.5478654199999999       0.47777284500000000        0.00000000    
   7.5267614399999996       0.52222715500000005        0.00000000    
   7.4981141800000000       0.47777284500000000        0.00000000    
   7.4770101999999996       0.52222715500000005        0.00000000    
   7.4483629400000000       0.47777284500000000        0.00000000    
   7.4272589499999997       0.52222715500000005        0.00000000    
   7.3986116900000001       0.47777284500000000        0.00000000    
   7.3775077099999997       0.52222715500000005        0.00000000    
   7.3488604500000001       0.47777284500000000        0.00000000    
   7.3277564699999997       0.52222715500000005        0.00000000    
   7.2991092100000001       0.47777284500000000        0.00000000    
   7.2780052199999998       0.52222715500000005        0.00000000    
   7.2493579600000002       0.47777284500000000        0.00000000    
   7.2282539799999999       0.52222715500000005        0.00000000    
   7.1996067200000002       0.47777284500000000        0.00000000    
   7.1785027299999999       0.52222715500000005        0.00000000    
   7.1498554700000003       0.47777284500000000        0.00000000    
   7.1287514900000000       0.52222715500000005        0.00000000    
   7.1001042300000003       0.47777284500000000        0.00000000    
   7.0790002500000000       0.52222715500000005        0.00000000    
   7.0503529900000004       0.47777284500000000        0.00000000    
   7.0292490000000001       0.52222715500000005        0.00000000    
   7.0006017399999996       0.47777284500000000        0.00000000    
   6.9794977600000001       0.52222715500000005        0.00000000    
   6.9508504999999996       0.47777284500000000        0.00000000    
   6.9297465200000001       0.52222715500000005        0.00000000    
   6.9010992599999996       0.47777284500000000        0.00000000    
   6.8799952700000002       0.52222715500000005        0.00000000    
   6.8513480099999997       0.47777284500000000        0.00000000    
   6.8302440300000002       0.52222715500000005        0.00000000    
   6.8015967699999997       0.47777284500000000        0.00000000    
   6.7804927800000003       0.52222715500000005        0.00000000    
   6.7518455199999998       0.47777284500000000        0.00000000    
   6.7307415400000004       0.52222715500000005        0.00000000    
   6.7020942799999998       0.47777284500000000        0.00000000    
   6.6809903000000004       0.52222715500000005        0.00000000    
   6.6523430399999999       0.47777284500000000        0.00000000    
   6.6312390499999996       0.52222715500000005        0.00000000    
   6.6025917900000000       0.47777284500000000        0.00000000    
   6.5814878099999996       0.52222715500000005        0.00000000    
   6.5528405500000000       0.47777284500000000        0.00000000    
   6.5317365699999996       0.52222715500000005        0.00000000    
   6.5030893100000000       0.47777284500000000        0.00000000    
   6.4819853199999997       0.52222715500000005        0.00000000    
[...]
POINT_DATA   19057
SCALARS p double
LOOKUP_TABLE default
   8.6204106666661756E-003
   2.5225181344000180     
  0.14414560266666659     
   2.5407882173333527     
   2.5410471968000206     
   2.5290868850666826     
   2.5296732933333512     
   2.5409854608000155     
   2.5171002389333528     
   2.5143064005333513     
   2.5044716234666851     
   2.4990855213333547     
   2.4907698128000186     
   2.4851214701333495     
   2.4770481269333522     
   2.4715339109333518     
  0.12563486933333559     
  0.12561844800000299     
  0.13699025066666817     
  0.13757961866666857     
  0.12592254933333541     
  0.14956224533333681     
  0.15235086133333645     
  0.16217185600000314     
  0.16755727200000298     
  0.17582606666666706     
  0.18149916533333438     
  0.18943124000000106     
  0.19508713066666852     
  0.20302366666666813     
  0.20851518400000049     
  0.21687302666666927     
  0.22161801066666839     
  0.23216350400000263     
  0.23216569866666811     
  0.24270355466666849     
  0.24743712800000051     
  0.25576430666666572     
  0.26122777333333419     
  0.26907774133333540     
  0.27468263733333470     
  0.28239123200000082     
  0.28802105066666916     
  0.29568186933333579     
  0.30131264266666963     
  0.30895765866666614     
  0.31458659733333466     
  0.32222707733333583     
  0.32785508800000185     
  0.33549454933333550     
  0.34112235466666829     
  0.34876181333333767     
  0.35438983466666707     
  0.36203031200000124     
  0.36765938933333681     
  0.37530431733333608     
  0.38093610933333638     
  0.38859604266667025     
  0.39423120800000450     
  0.40193424000000622     
  0.40756183200000362     
  0.41538573866667106     
  0.42093306933333835     
  0.42915970400000647     
  0.43418436533333815     
  0.44437954666667207     
  0.44540733066667187     
  0.45674855733333664     
  0.45777633866667056     
  0.46797152266667003     
  0.47299618133333571     
  0.48122281866666866     
  0.48677014933333912     
  0.49459405600000611     
  0.50022164800000490     
  0.50792467733334012     
  0.51355984266667098     
  0.52121977600000613     
  0.52685157066667021     
  0.53449649600000393     
  0.54012557066667011     
  0.54776604800000395     
  0.55339406666667446     
  0.56103351200000573     
  0.56666128000000582     
  0.57430056266667329     
  0.57992829333333895     
  0.58756756266667209     
  0.59319529066667054     
  0.60083456000000546     
  0.60646228800000435     
  0.61410155733333704     
  0.61972928800000404     
  0.62736855733333885     
  0.63299628533333774     
  0.64063555466667099     
  0.64626328533333655     
  0.65390255466667224     
  0.65953028266667035     
  0.66716955200000227     
  0.67279728000000250     
  0.68043654933333608     
  0.68606428000000352     
  0.69370354933333622     
  0.69933127733333555     
  0.70697054666667025     
  0.71259827466667036     
  0.72023754400000417     
  0.72586527466667050     
  0.73350454400000609     
  0.73913227200000386     
  0.74677154133333667     
  0.75239927200000778     
  0.76003854133333937     
  0.76566626933333781     
  0.77330553866667318     
  0.77893326666667206     
  0.78657253600000554     
  0.79220026666667243     
  0.79983953600000524     
  0.80546726400000634     
  0.81310653333333816     
  0.81873426133333871     
  0.82637353066667096     
  0.83200126133333874     
  0.83964053066667199     
  0.84526825866667288     
  0.85290752800000602     
  0.85853525866667213     
  0.86617452800000538     
  0.87180225600000472     
  0.87944152533333730     
  0.88506925333333930     
  0.89270852266667111     
  0.89833625333333844     
  0.90597552266667336     
  0.91160325066667225     
  0.91924252000000550     
  0.92487024800000661     
  0.93250951733333975     
  0.93813724800000531     
  0.94577651733333723     
  0.95140424800000944     
  0.95904353066667203     
  0.96467129600000490     
  0.97231074133333861     
  0.97793876000000401     
  0.98557923733333574     
  0.99120831200000625     
  0.99885324000000475     
   1.0044850320000052     
   1.0121449653333390     
   1.0177801306666676     
   1.0254831626666725     
   1.0311107546666736     
   1.0389346586666717     
   1.0444819920000055     
   1.0527086266666692     
   1.0577332853333383     
   1.0679284693333384     
   1.0689562506666663     
   1.0802974800000043     
   1.0813252613333373     
   1.0915204453333367     
   1.0965451040000052     
   1.1047717386666716     
   1.1103190720000042     
   1.1181429760000070     
   1.1237705706666716     
   1.1314736000000059     
   1.1371087653333403     
   1.1447686986666732     
   1.1504004906666736     
   1.1580454186666720     
   1.1636744933333378     
   1.1713149706666739     
   1.1769429893333414     
   1.1845824346666718     
   1.1902102000000070     
   1.1978494826666739     
   1.2034772133333429     
   1.2111164826666725     
   1.2167442133333408     
   1.2243834826666768     
   1.2300112106666736     
   1.2376504800000070     
   1.2432782106666758     
   1.2509174800000076     
   1.2565452080000077     
   1.2641844773333393     
   1.2698122053333405     
   1.2774514746666756     
   1.2830792053333395     
   1.2907184746666729     
   1.2963462026666763     
   1.3039854720000050     
   1.3096132000000056     
   1.3172524693333405     
   1.3228802000000062     
   1.3305194693333424     
   1.3361471973333414     
   1.3437864666666743     
   1.3494141973333416     
   1.3570534666666774     
   1.3626811946666759     
   1.3703204640000086     
   1.3759481920000090     
   1.3835874613333432     
   1.3892151920000086     
   1.3968544613333420     
   1.4024821893333446     
   1.4101214586666801     
   1.4157491866666774     
   1.4233884560000123     
   1.4290161866666771     
   1.4366554560000124     
   1.4422831840000103     
   1.4499224533333430     
   1.4555501840000102     
   1.4631894533333467     
   1.4688171813333450     
   1.4764564506666795     
   1.4820841786666787     
   1.4897234480000106     
   1.4953511786666795     
   1.5029904480000140     
   1.5086181760000132     
   1.5162574453333475     
   1.5218851733333472     
   1.5295244426666816     
   1.5351521733333453     
   1.5427914426666782     
   1.5484191706666788     
   1.5560584400000101     
   1.5616861706666783     
   1.5693254400000118     
   1.5749531680000119     
   1.5825924373333469     
   1.5882201653333461     
   1.5958594346666795     
   1.6014871653333453     
   1.6091264346666789     
   1.6147541626666810     
   1.6223934320000146     
   1.6280211626666783     
   1.6356604293333461     
   1.6412881600000120     
   1.6489274293333447     
   1.6545551573333457     
   1.6621944266666764     
   1.6678221573333476     
   1.6754614266666805     
   1.6810891546666822     
   1.6887284240000149     
   1.6943561520000114     
   1.7019954213333457     
   1.7076231520000122     
   1.7152624213333483     
   1.7208901493333475     
   1.7285294186666782     
   1.7341571493333470     
   1.7417964186666803     
   1.7474241466666780     
   1.7550634160000120     
   1.7606911440000128     
   1.7683304133333477     
   1.7739581440000138     
   1.7815974133333463     
   1.7872251413333480     
   1.7948644106666842     
   1.8004921386666835     
   1.8081314080000133     
   1.8137591386666780     
   1.8213984080000147     
   1.8270261360000128     
   1.8346654053333447     
   1.8402931360000139     
   1.8479324053333444     
   1.8535601333333447     
   1.8611994026666818     
   1.8668271306666826     
   1.8744664000000146     
   1.8800941306666794     
   1.8877334000000132     
   1.8933611280000155     
   1.9010003973333487     
   1.9066281253333497     
   1.9142673946666831     
   1.9198951253333478     
   1.9275343946666814     
   1.9331621226666815     
   1.9408013920000149     
   1.9464291226666819     
   1.9540683920000148     
   1.9596961200000163     
   1.9673353893333470     
   1.9729631173333493     
   1.9806023866666815     
   1.9862301173333479     
   1.9938693866666797     
   1.9994971146666820     
   2.0071363840000189     
   2.0127641120000193     
   2.0204033813333484     
   2.0260311120000107     
   2.0336703813333461     
   2.0392981093333464     
   2.0469373786666791     
   2.0525651093333455     
   2.0602043786666777     
   2.0658321066666780     
   2.0734713760000125     
   2.0790991040000133     
   2.0867383733333456     
   2.0923661040000128     
   2.1000053733333446     
   2.1056331013333449     
   2.1132723706666749     
   2.1189001013333444     
   2.1265393680000120     
   2.1321670986666792     
   2.1398063680000128     
   2.1454340960000136     
   2.1530733653333476     
   2.1587010960000113     
   2.1663403653333484     
   2.1719680933333478     
   2.1796073626666819     
   2.1852350906666835     
   2.1928743600000167     
   2.1985020906666888     
   2.2061413600000179     
   2.2117690880000191     
   2.2194083573333505     
   2.2250360880000146     
   2.2326753573333513     
   2.2383030853333494     
   2.2459423546666839     
   2.2515700826666838     
   2.2592093520000156     
   2.2648370826666837     
   2.2724763520000191     
   2.2781040800000185     
   2.2857433493333539     
   2.2913710773333520     
   2.2990103466666829     
   2.3046380773333510     
   2.3122773440000191     
   2.3179050720000154     
   2.3255443413333503     
   2.3311720720000193     
   2.3388113520000200     
   2.3444391173333528     
   2.3520785600000229     
   2.3577065653333520     
   2.3653470426666852     
   2.3709759786666846     
   2.3786209973333485     
   2.3842517813333464     
   2.3919126453333504     
   2.3975425253333520     
   2.4052513408000160     
   2.4108564853333490     
   2.4187073386666826     
   2.4241715922666858     
   2.4325020992000135     
   2.4372373533333520     
   2.4477849405333494     
   2.4477902536000236     
   2.4583597082666815     
   2.4631205194666856     
   2.5573660397333509     
   2.5465575661333513     
   2.5529330474666820     
   2.5342626818666862     
   2.5347751301333514     
   2.5528198376000195     
   2.5223588952000169     
   2.5466644946666839     
   2.5210335384000184     
   2.5568902805333518     
   2.5095228690666844     
   2.5069743317333519     
   2.4963273306666847     
   2.4929693474666847     
   2.4828128618666812     
   2.4793692245333530     
  0.10924033866666802     
  0.11993458400000052     
  0.11367706133333484     
  0.13191525333333412     
  0.13237740533333422     
  0.11390002666666810     
  0.14432510933333625     
  0.12017208000000153     
  0.10983028800000320     
  0.14561027733333343     
  0.15713766400000054     
  0.15968013600000150     
  0.17029325600000239     
  0.17369584800000307     
  0.18371843200000063     
  0.18734356800000318     
  0.19722866133333428     
  0.20073703733333462     
  0.21089979200000114     
  0.21382515733333352     
  0.22498130933333668     
  0.22621974400000172     
  0.23811117333333648     
  0.23934524000000229     
  0.25048312533333389     
  0.25340231999999785     
  0.26350206399999904     
  0.26701286400000268     
  0.27672335466666953     
  0.28041582133333653     
  0.28999055200000223     
  0.29373112266666906     
  0.30326221066666736     
  0.30701266933333698     
  0.31653141600000306     
  0.32028313600000025     
  0.32979901600000289     
  0.33355073066666763     
  0.34306617066666800     
  0.34681788800000241     
  0.35633376000000205     
  0.36008553866667004     
  0.36960413866666808     
  0.37335525866667124     
  0.38288498933333731     
  0.38662996533333654     
  0.39619633066667198     
  0.39991036533333796     
  0.40958152000000470     
  0.41317806933333912     
  0.42312417600000413     
  0.42633712000000545     
  0.43694036533333652     
  0.43908061333333787     
  0.45039836266667271     
  0.45175752533333913     
  0.46307527200000265     
  0.46521552000000238     
  0.47581876533333739     
  0.47903171200000333     
  0.48897781866667156     
  0.49257436533333993     
  0.50224552266667311     
  0.50595955466667131     
  0.51552592266667185     
  0.51927089600000487     
  0.52880062666667260     
  0.53255174666667027     
  0.54207034666667187     
  0.54582212533333940     
  0.55533799466667122     
  0.55908970400000557     
  0.56860508800000531     
  0.57235676266667324     
  0.58187209333333800     
  0.58562376266666960     
  0.59513909066667059     
  0.59889076000000596     
  0.60840608800000429     
  0.61215775733333744     
  0.62167308800000698     
  0.62542475733333747     
  0.63494008533333912     
  0.63869175466666961     
  0.64820708266667182     
  0.65195875466667008     
  0.66147408266666974     
  0.66522575200000444     
  0.67474108000000388     
  0.67849274933333648     
  0.68800808000000313     
  0.69175974933333939     
  0.70127507733333805     
  0.70502674666666953     
  0.71454207466667019     
  0.71829374400000312     
  0.72780907466667244     
  0.73156074400000459     
  0.74107607200000924     
  0.74482774133333685     
  0.75434307200000528     
  0.75809474133333898     
  0.76761006933333953     
  0.77136173866667179     
  0.78087706666667267     
  0.78462873600000560     
  0.79414406666667126     
  0.79789573600000618     
  0.80741106400000529     
  0.81116273333333944     
  0.82067806133333943     
  0.82442973066667202     
  0.83394506133333779     
  0.83769673066667183     
  0.84721205866667226     
  0.85096372800000708     
  0.86047905866667129     
  0.86423072800000622     
  0.87374605600000477     
  0.87749772533333870     
  0.88701305333333902     
  0.89076472266667328     
  0.90028005333333772     
  0.90403172266667209     
  0.91354705066667141     
  0.91729872000000634     
  0.92681404800000666     
  0.93056572000000604     
  0.94008104800000536     
  0.94383271733333907     
  0.95334804800000428     
  0.95709972000000265     
  0.96661510666667239     
  0.97036681600000518     
  0.97988268533333600     
  0.98363446400000476     
  0.99315306400000525     
  0.99690418133333947     
   1.0064339120000048     
   1.0101788880000049     
   1.0197452533333387     
   1.0234592853333386     
   1.0331304426666730     
   1.0367269893333388     
   1.0466730986666712     
   1.0498860426666705     
   1.0604892880000032     
   1.0626295360000033     
   1.0739472853333401     
   1.0753064480000034     
   1.0866241946666690     
   1.0887644426666689     
   1.0993676880000052     
   1.1025806320000036     
   1.1125267413333393     
   1.1161232880000023     
   1.1257944453333415     
   1.1295084773333417     
   1.1390748426666721     
   1.1428198186666716     
   1.1523495493333402     
   1.1561006666666693     
   1.1656192693333385     
   1.1693710453333379     
   1.1788869146666743     
   1.1826386240000089     
   1.1921540106666724     
   1.1959056826666750     
   1.2054210133333403     
   1.2091726826666742     
   1.2186880133333389     
   1.2224396826666735     
   1.2319550106666746     
   1.2357066800000069     
   1.2452220080000076     
   1.2489736800000075     
   1.2584890080000068     
   1.2622406773333403     
   1.2717560053333394     
   1.2755076746666734     
   1.2850230053333400     
   1.2887746746666746     
   1.2982900026666715     
   1.3020416720000074     
   1.3115570000000052     
   1.3153086693333402     
   1.3248240000000111     
   1.3285756693333397     
   1.3380909973333421     
   1.3418426666666754     
   1.3513579973333418     
   1.3551096666666760     
   1.3646249946666762     
   1.3683766640000106     
   1.3778919920000081     
   1.3816436613333407     
   1.3911589920000080     
   1.3949106613333422     
   1.4044259893333444     
   1.4081776586666759     
   1.4176929866666745     
   1.4214446586666767     
   1.4309599866666773     
   1.4347116560000088     
   1.4442269840000121     
   1.4479786533333412     
   1.4574939840000123     
   1.4612456533333431     
   1.4707609813333444     
   1.4745126506666770     
   1.4840279786666812     
   1.4877796480000136     
   1.4972949786666778     
   1.5010466480000111     
   1.5105619760000120     
   1.5143136453333468     
   1.5238289733333461     
   1.5275806453333454     
   1.5370959733333440     
   1.5408476426666795     
   1.5503629706666813     
   1.5541146400000108     
   1.5636299706666787     
   1.5673816400000109     
   1.5768969680000124     
   1.5806486373333457     
   1.5901639653333468     
   1.5939156346666756     
   1.6034309653333458     
   1.6071826346666782     
   1.6166979626666789     
   1.6204496320000106     
   1.6299649600000128     
   1.6337166320000105     
   1.6432319600000111     
   1.6469836293333473     
   1.6564989573333457     
   1.6602506266666790     
   1.6697659573333474     
   1.6735176266666845     
   1.6830329546666853     
   1.6867846240000128     
   1.6962999520000144     
   1.7000516213333456     
   1.7095669520000141     
   1.7133186213333467     
   1.7228339493333480     
   1.7265856186666799     
   1.7361009466666801     
   1.7398526186666772     
   1.7493679466666781     
   1.7531196160000146     
   1.7626349440000146     
   1.7663866133333455     
   1.7759019440000123     
   1.7796536133333463     
   1.7891689413333487     
   1.7929206106666813     
   1.8024359386666824     
   1.8061876080000130     
   1.8157029386666796     
   1.8194546080000122     
   1.8289699360000129     
   1.8327216053333488     
   1.8422369360000135     
   1.8459886053333339     
   1.8555039333333483     
   1.8592556026666796     
   1.8687709306666804     
   1.8725226000000126     
   1.8820379306666823     
   1.8857896000000149     
   1.8953049280000154     
   1.8990565973333486     
   1.9085719253333493     
   1.9123235946666828     
   1.9218389253333525     
   1.9255905946666805     
   1.9351059226666829     
   1.9388575920000164     
   1.9483729226666802     
   1.9521245920000136     
   1.9616399200000170     
   1.9653915893333467     
   1.9749069173333493     
   1.9786585866666804     
   1.9881739173333475     
   1.9919255866666823     
   2.0014409146666829     
   2.0051925840000160     
   2.0147079120000186     
   2.0184595840000132     
   2.0279749120000110     
   2.0317265813333485     
   2.0412419093333449     
   2.0449935786666793     
   2.0545089093333453     
   2.0582605786666797     
   2.0677759066666761     
   2.0715275760000131     
   2.0810429040000114     
   2.0847945733333444     
   2.0943099040000099     
   2.0980615733333474     
   2.1075769013333456     
   2.1113285706666804     
   2.1208438986666796     
   2.1245955706666799     
   2.1341108986666781     
   2.1378625680000112     
   2.1473778960000138     
   2.1511295653333500     
   2.1606448960000120     
   2.1643965653333437     
   2.1739118933333517     
   2.1776635626666829     
   2.1871788906666851     
   2.1909305600000182     
   2.2004458906666846     
   2.2041975600000185     
   2.2137128880000168     
   2.2174645573333511     
   2.2269798853333489     
   2.2307315573333502     
   2.2402468853333488     
   2.2439985546666827     
   2.2535138826666814     
   2.2572655520000158     
   2.2667808826666835     
   2.2705325520000170     
   2.2800478800000157     
   2.2837995493333518     
   2.2933148773333496     
   2.2970665466666835     
   2.3065818746666888     
   2.3103335440000214     
   2.3198488720000205     
   2.3236005413333496     
   2.3331158693333491     
   2.3368675440000222     
   2.3463829253333524     
   2.3501346346666887     
   2.3596505066666889     
   2.3634022240000188     
   2.3729209706666836     
   2.3766714266666882     
   2.3862025333333481     
   2.3899431173333521     
   2.3995179653333469     
   2.4032104789333522     
   2.4129214893333470     