# vtk DataFile Version 3.0
./plots/steadyStateStream.vtk
ASCII
DATASET UNSTRUCTURED_GRID

POINTS   19057 double
  9.967673460      0.3124742090E-01   0.000000000    
 0.5405569960      0.4955230610       0.000000000    
  9.459453990      0.5051629370       0.000000000    
 0.4720441850      0.5401346240       0.000000000    
 0.4710730120      0.4995689280       0.000000000    
 0.5159241810      0.5234011590       0.000000000    
 0.5137251500      0.4719561110       0.000000000    
 0.4713045220      0.4594894030       0.000000000    
 0.5608741040      0.4695975320       0.000000000    
 0.5713509980      0.5166706180       0.000000000    
 0.6082314120      0.4743050940       0.000000000    
 0.6284292950      0.5204821860       0.000000000    
 0.6596132020      0.4769944660       0.000000000    
 0.6807944870      0.5226631080       0.000000000    
 0.7110695240      0.4793214950       0.000000000    
 0.7317478340      0.5252695180       0.000000000    
  9.528869240      0.5425706070       0.000000000    
  9.528930820      0.5023969480       0.000000000    
  9.486286560      0.5291561330       0.000000000    
  9.484076430      0.4777148720       0.000000000    
  9.527790440      0.4619445880       0.000000000    
  9.439141580      0.5309212190       0.000000000    
  9.428684270      0.4838322460       0.000000000    
  9.391855540      0.5260574630       0.000000000    
  9.371660230      0.4799590020       0.000000000    
  9.340652250      0.5235929560       0.000000000    
  9.319378130      0.4782290620       0.000000000    
  9.289632850      0.5220570070       0.000000000    
  9.268423260      0.4767892050       0.000000000    
  9.238661250      0.5202863450       0.000000000    
  9.218068060      0.4745193670       0.000000000    
  9.186726150      0.5169252300       0.000000000    
  9.168932460      0.4699684980       0.000000000    
  9.129386860      0.5087036000       0.000000000    
  9.129378630      0.4608744300       0.000000000    
  9.089861670      0.4699522880       0.000000000    
  9.072110770      0.5168776960       0.000000000    
  9.040883850      0.4744354520       0.000000000    
  9.020395850      0.5200967470       0.000000000    
  8.990958470      0.4764876710       0.000000000    
  8.969940110      0.5214629320       0.000000000    
  8.941032880      0.4773463890       0.000000000    
  8.919921060      0.5219952160       0.000000000    
  8.891192990      0.4776569980       0.000000000    
  8.870077590      0.5221709590       0.000000000    
  8.841408780      0.4777486150       0.000000000    
  8.820300260      0.5222170980       0.000000000    
  8.791648460      0.4777693150       0.000000000    
  8.770543420      0.5222259830       0.000000000    
  8.741895440      0.4777726050       0.000000000    
  8.720791170      0.5222273600       0.000000000    
  8.692143200      0.4777738920       0.000000000    
  8.671038120      0.5222302560       0.000000000    
  8.642386330      0.4777812210       0.000000000    
  8.621277290      0.5222469340       0.000000000    
  8.592608810      0.4778157650       0.000000000    
  8.571489590      0.5223142460       0.000000000    
  8.542764840      0.4779341390       0.000000000    
  8.521632970      0.5225219470       0.000000000    
  8.492746600      0.4782539150       0.000000000    
  8.471643130      0.5230445390       0.000000000    
  8.442303480      0.4789836730       0.000000000    
  8.421500990      0.5242048900       0.000000000    
  8.390651110      0.4805315930       0.000000000    
  8.371808630      0.5267323380       0.000000000    
  8.333576700      0.4842786590       0.000000000    
  8.329722510      0.5329039470       0.000000000    
  8.287192910      0.4670960530       0.000000000    
  8.283338730      0.5157213410       0.000000000    
  8.245106790      0.4732676620       0.000000000    
  8.226264320      0.5194684070       0.000000000    
  8.195414430      0.4757951100       0.000000000    
  8.174611940      0.5210163270       0.000000000    
  8.145272290      0.4769554610       0.000000000    
  8.124168820      0.5217460850       0.000000000    
  8.095282460      0.4774780530       0.000000000    
  8.074150590      0.5220658610       0.000000000    
  8.045425840      0.4776857530       0.000000000    
  8.024306610      0.5221842330       0.000000000    
  7.995638140      0.4777530640       0.000000000    
  7.974529110      0.5222187750       0.000000000    
  7.945877320      0.4777697390       0.000000000    
  7.924772250      0.5222260930       0.000000000    
  7.896124330      0.4777725700       0.000000000    
  7.875020200      0.5222270940       0.000000000    
  7.846372890      0.4777728380       0.000000000    
  7.825268900      0.5222271540       0.000000000    
  7.796621640      0.4777728450       0.000000000    
  7.775517660      0.5222271550       0.000000000    
  7.746870400      0.4777728450       0.000000000    
  7.725766420      0.5222271550       0.000000000    
  7.697119160      0.4777728450       0.000000000    
  7.676015170      0.5222271550       0.000000000    
  7.647367910      0.4777728450       0.000000000    
  7.626263930      0.5222271550       0.000000000    
  7.597616670      0.4777728450       0.000000000    
  7.576512680      0.5222271550       0.000000000    
  7.547865420      0.4777728450       0.000000000    
  7.526761440      0.5222271550       0.000000000    
  7.498114180      0.4777728450       0.000000000    
  7.477010200      0.5222271550       0.000000000    
  7.448362940      0.4777728450       0.000000000    
  7.427258950      0.5222271550       0.000000000    
  7.398611690      0.4777728450       0.000000000    
  7.377507710      0.5222271550       0.000000000    
  7.348860450      0.4777728450       0.000000000    
  7.327756470      0.5222271550       0.000000000    
  7.299109210      0.4777728450       0.000000000    
  7.278005220      0.5222271550       0.000000000    
  7.249357960      0.4777728450       0.000000000    
  7.228253980      0.5222271550       0.000000000    
  7.199606720      0.4777728450       0.000000000    
  7.178502730      0.5222271550       0.000000000    
  7.149855470      0.4777728450       0.000000000    
  7.128751490      0.5222271550       0.000000000    
  7.100104230      0.4777728450       0.000000000    
  7.079000250      0.5222271550       0.000000000    
  7.050352990      0.4777728450       0.000000000    
  7.029249000      0.5222271550       0.000000000    
  7.000601740      0.4777728450       0.000000000    
  6.979497760      0.5222271550       0.000000000    
  6.950850500      0.4777728450       0.000000000    
  6.929746520      0.5222271550       0.000000000    
  6.901099260      0.4777728450       0.000000000    
  6.879995270      0.5222271550       0.000000000    
  6.851348010      0.4777728450       0.000000000    
  6.830244030      0.5222271550       0.000000000    
  6.801596770      0.4777728450       0.000000000    
  6.780492780      0.5222271550       0.000000000    
  6.751845520      0.4777728450       0.000000000    
  6.730741540      0.5222271550       0.000000000    
  6.702094280      0.4777728450       0.000000000    
  6.680990300      0.5222271550       0.000000000    
  6.652343040      0.4777728450       0.000000000    
  6.631239050      0.5222271550       0.000000000    
  6.602591790      0.4777728450       0.000000000    
  6.581487810      0.5222271550       0.000000000    
  6.552840550      0.4777728450       0.000000000    
  6.531736570      0.5222271550       0.000000000    
  6.503089310      0.4777728450       0.000000000    
  6.481985320      0.5222271550       0.000000000    
  6.453338060      0.4777728460       0.000000000    
  6.432234070      0.5222271620       0.000000000    
  6.403586760      0.4777729060       0.000000000    
  6.382482640      0.5222274300       0.000000000    
  6.353834720      0.4777739070       0.000000000    
  6.332729650      0.5222302610       0.000000000    
  6.304077860      0.4777812250       0.000000000    
  6.282968830      0.5222469360       0.000000000    
  6.254300350      0.4778157670       0.000000000    
  6.233181130      0.5223142470       0.000000000    
  6.204456380      0.4779341390       0.000000000    
  6.183324510      0.5225219470       0.000000000    
  6.154438140      0.4782539150       0.000000000    
  6.133334670      0.5230445390       0.000000000    
  6.103995030      0.4789836730       0.000000000    
  6.083192530      0.5242048900       0.000000000    
  6.052342650      0.4805315930       0.000000000    
  6.033500180      0.5267323380       0.000000000    
  5.995268240      0.4842786590       0.000000000    
  5.991414060      0.5329039470       0.000000000    
  5.948884450      0.4670960530       0.000000000    
  5.945030270      0.5157213410       0.000000000    
  5.906798330      0.4732676620       0.000000000    
  5.887955860      0.5194684070       0.000000000    
  5.857105980      0.4757951100       0.000000000    
  5.836303480      0.5210163270       0.000000000    
  5.806963840      0.4769554610       0.000000000    
  5.785860360      0.5217460850       0.000000000    
  5.756974000      0.4774780530       0.000000000    
  5.735842130      0.5220658610       0.000000000    
  5.707117380      0.4776857530       0.000000000    
  5.685998160      0.5221842330       0.000000000    
  5.657329680      0.4777530640       0.000000000    
  5.636220650      0.5222187750       0.000000000    
  5.607568860      0.4777697390       0.000000000    
  5.586463790      0.5222260930       0.000000000    
  5.557815870      0.4777725700       0.000000000    
  5.536711750      0.5222270940       0.000000000    
  5.508064440      0.4777728380       0.000000000    
  5.486960450      0.5222271540       0.000000000    
  5.458313190      0.4777728450       0.000000000    
  5.437209200      0.5222271550       0.000000000    
[...]
POINT_DATA   19057
SCALARS psi double
LOOKUP_TABLE default
 0.1232802834E-01
 0.4536729186    
 0.5068841029    
 0.5050760462    
 0.4491502145    
 0.4883363205    
 0.4182576744    
 0.3949467660    
 0.4213755183    
 0.4860438937    
 0.4330409474    
 0.4971295059    
 0.4415812486    
 0.5046318731    
 0.4488745374    
 0.5119024702    
 0.5566577269    
 0.5031958664    
 0.5388418740    
 0.4703013586    
 0.4493331091    
 0.5411886005    
 0.4784490149    
 0.5347201033    
 0.4732893080    
 0.5314397946    
 0.4709858236    
 0.5293950684    
 0.4690689826    
 0.5270374121    
 0.4660479129    
 0.5225606504    
 0.4599937236    
 0.5116025133    
 0.4479125637    
 0.4599721722    
 0.5224973344    
 0.4659362584    
 0.5267849425    
 0.4686676250    
 0.5286041222    
 0.4698107224    
 0.5293127977    
 0.4702242150    
 0.5295467603    
 0.4703461759    
 0.5296081795    
 0.4703737298    
 0.5296200058    
 0.4703781084    
 0.5296218382    
 0.4703798211    
 0.5296256926    
 0.4703895767    
 0.5296478935    
 0.4704355621    
 0.5297375018    
 0.4705931530    
 0.5300140083    
 0.4710188953    
 0.5307097061    
 0.4719905628    
 0.5322542897    
 0.4740519241    
 0.5356181112    
 0.4790442997    
 0.5438245077    
 0.4561754901    
 0.5209556981    
 0.4643818866    
 0.5259480736    
 0.4677457079    
 0.5280094348    
 0.4692902915    
 0.5289811022    
 0.4699859890    
 0.5294068442    
 0.4702624939    
 0.5295644322    
 0.4703521006    
 0.5296104147    
 0.4703742972    
 0.5296201553    
 0.4703780649    
 0.5296214873    
 0.4703784213    
 0.5296215671    
 0.4703784306    
 0.5296215684    
 0.4703784306    
 0.5296215685    
 0.4703784306    
 0.5296215685    
 0.4703784307    
 0.5296215686    
 0.4703784307    
 0.5296215686    
 0.4703784308    
 0.5296215686    
 0.4703784308    
 0.5296215687    
 0.4703784309    
 0.5296215687    
 0.4703784309    
 0.5296215687    
 0.4703784309    
 0.5296215688    
 0.4703784310    
 0.5296215688    
 0.4703784310    
 0.5296215688    
 0.4703784310    
 0.5296215688    
 0.4703784310    
 0.5296215689    
 0.4703784310    
 0.5296215689    
 0.4703784310    
 0.5296215689    
 0.4703784311    
 0.5296215689    
 0.4703784311    
 0.5296215689    
 0.4703784311    
 0.5296215689    
 0.4703784311    
 0.5296215689    
 0.4703784311    
 0.5296215689    
 0.4703784311    
 0.5296215689    
 0.4703784311    
 0.5296215690    
 0.4703784311    
 0.5296215690    
 0.4703784311    
 0.5296215690    
 0.4703784311    
 0.5296215689    
 0.4703784311    
 0.5296215689    
 0.4703784323    
 0.5296215780    
 0.4703785120    
 0.5296219344    
 0.4703798439    
 0.5296257020    
 0.4703895844    
 0.5296478984    
 0.4704355667    
 0.5297375049    
 0.4705931545    
 0.5300140096    
 0.4710188963    
 0.5307097070    
 0.4719905634    
 0.5322542902    
 0.4740519243    
 0.5356181113    
 0.4790442994    
 0.5438245074    
 0.4561754895    
 0.5209556974    
 0.4643818855    
 0.5259480724    
 0.4677457065    
 0.5280094332    
 0.4692902895    
 0.5289811000    
 0.4699859865    
 0.5294068415    
 0.4702624909    
 0.5295644288    
 0.4703520968    
 0.5296104106    
 0.4703742927    
 0.5296201504    
 0.4703780595    
 0.5296214815    
 0.4703784149    
 0.5296215602    
 0.4703784230    
 0.5296215603    
 0.4703784217    
 0.5296215589    
 0.4703784202    
 0.5296215573    
 0.4703784184    
 0.5296215554    
 0.4703784163    
 0.5296215532    
 0.4703784139    
 0.5296215505    
 0.4703784110    
 0.5296215475    
 0.4703784077    
 0.5296215439    
 0.4703784038    
 0.5296215397    
 0.4703783992    
 0.5296215348    
 0.4703783938    
 0.5296215291    
 0.4703783875    
 0.5296215224    
 0.4703783802    
 0.5296215145    
 0.4703783716    
 0.5296215054    
 0.4703783615    
 0.5296214946    
 0.4703783498    
 0.5296214821    
 0.4703783361    
 0.5296214674    
 0.4703783200    
 0.5296214502    
 0.4703783012    
 0.5296214301    
 0.4703782792    
 0.5296214067    
 0.4703782536    
 0.5296213792    
 0.4703782235    
 0.5296213472    
 0.4703781884    
 0.5296213096    
 0.4703781474    
 0.5296212658    
 0.4703780994    
 0.5296212145    
 0.4703780433    
 0.5296211545    
 0.4703779777    
 0.5296210844    
 0.4703779010    
 0.5296210025    
 0.4703778113    
 0.5296209067    
 0.4703777065    
 0.5296207946    
 0.4703775839    
 0.5296206636    
 0.4703774406    
 0.5296205105    
 0.4703772730    
 0.5296203314    
 0.4703770771    
 0.5296201221    
 0.4703768480    
 0.5296198773    
 0.4703765802    
 0.5296195911    
 0.4703762671    
 0.5296192566    
 0.4703759010    
 0.5296188654    
 0.4703754729    
 0.5296184080    
 0.4703749725    
 0.5296178732    
 0.4703743874    
 0.5296172480    
 0.4703737033    
 0.5296165170    
 0.4703729034    
 0.5296156624    
 0.4703719683    
 0.5296146632    
 0.4703708750    
 0.5296134949    
 0.4703695966    
 0.5296121290    
 0.4703681021    
 0.5296105320    
 0.4703663547    
 0.5296086648    
 0.4703643116    
 0.5296064817    
 0.4703619230    
 0.5296039294    
 0.4703591302    
 0.5296009452    
 0.4703558650    
 0.5295974563    
 0.4703520473    
 0.5295933770    
 0.4703475838    
 0.5295886077    
 0.4703423652    
 0.5295830316    
 0.4703362637    
 0.5295765121    
 0.4703291299    
 0.5295688897    
 0.4703207892    
 0.5295599779    
 0.4703110375    
 0.5295495585    
 0.4702996360    
 0.5295373764    
 0.4702863055    
 0.5295231335    
 0.4702707197    
 0.5295064813    
 0.4702524970    
 0.5294870120    
 0.4702311913    
 0.5294642494    
 0.4702062808    
 0.5294376362    
 0.4701771557    
 0.5294065213    
 0.4701431028    
 0.5293701431    
 0.4701032881    
 0.5293276116    
 0.4700567367    
 0.5292778861    
 0.4700023084    
 0.5292197500    
 0.4699386702    
 0.5291517811    
 0.4698642630    
 0.5290723167    
 0.4697772642    
 0.5289794132    
 0.4696755419    
 0.5288707987    
 0.4695566033    
 0.5287438173    
 0.4694175332    
 0.5285953647    
 0.4692549219    
 0.5284218125    
 0.4690647816    
 0.5282189196    
 0.4688424478    
 0.5279817296    
 0.4685824642    
 0.5277044496    
 0.4682784475    
 0.5273803107    
 0.4679229303    
 0.5270014025    
 0.4675071703    
 0.5265584839    
 0.4670209426    
 0.5260407566    
 0.4664522728    
 0.5254356155    
 0.4657872197    
 0.5247286739    
 0.4650106521    
 0.5239062483    
 0.4641121872    
 0.5229674689    
 0.4631080789    
 0.5219596833    
 0.4620932183    
 0.5210519797    
 0.4613339778    
 0.5206502484    
 0.4614156832    
 0.5215814169    
 0.4636033313    
 0.5254986874    
 0.5357125858    
 0.4717159099    
 0.5213135025    
 0.4572895719    
 0.5446604962    
 0.5495265411    
 0.4845851756    
 0.5526293354    
 0.3556438760    
 0.4029155079    
 0.3647645666    
 0.3487785601    
 0.5517311895    
 0.3434347576    
 0.3723166987    
 0.5551910217    
 0.3800533975    
 0.5611418249    
 0.3867638236    
 0.5669759740    
 0.6009094187    
 0.6004103258    
 0.5423272317    
 0.5991932040    
 0.4064524128    
 0.4633601952    
 0.5956574086    
 0.4053526791    
 0.4068762767    
 0.4119553937    
 0.5934921024    
 0.4135138528    
 0.5908638037    
 0.4124430366    
 0.5890434700    
 0.4112626792    
 0.5874723010    
 0.4096585759    
 0.5853300805    
 0.4069794239    
 0.5822029920    
 0.4032489494    
 0.4032458691    
 0.5821792117    
 0.4069502701    
 0.5852095346    
 0.4095232457    
 0.5870701242    
 0.4108290087    
 0.5879358942    
 0.4113695814    
 0.5882652453    
 0.4115508556    
 0.5883651489    
 0.4115980628    
 0.5883880992    
 0.4116068665    
 0.5883917586    
 0.4116081937    
 0.5883930307    
 0.4116113455    
 0.5884006112    
 0.4116291042    
 0.5884380851    
 0.4116978833    
 0.5885699196    
 0.4118967074    
 0.5889291355    
 0.4123402760    
 0.5897223455    
 0.4130919208    
 0.5911503756    
 0.4137117175    
 0.5928797321    
 0.4100789064    
 0.5899210915    
 0.4071202657    
 0.5862882803    
 0.4088496221    
 0.5869080769    
 0.4102776522    
 0.5876597216    
 0.4110708619    
 0.5881032887    
 0.4114300777    
 0.5883021113    
 0.4115619105    
 0.5883708887    
 0.4115993827    
 0.5883886432    
 0.4116069510    
 0.5883917407    
 0.4116079044    
 0.5883920419    
 0.4116079490    
 0.5883920498    
 0.4116079491    
 0.5883920499    
 0.4116079491    
 0.5883920500    
 0.4116079492    
 0.5883920500    
 0.4116079492    
 0.5883920501    
 0.4116079493    
 0.5883920501    
 0.4116079493    
 0.5883920502    
 0.4116079494    
 0.5883920502    
 0.4116079494    
 0.5883920502    
 0.4116079494    
 0.5883920503    
 0.4116079494    
 0.5883920503    
 0.4116079495    
 0.5883920503    
 0.4116079495    
 0.5883920503    
 0.4116079495    
 0.5883920503    
 0.4116079495    
 0.5883920504    
 0.4116079495    
 0.5883920504    
 0.4116079496    
 0.5883920504    
 0.4116079496    
 0.5883920504    
 0.4116079496    
 0.5883920504    
 0.4116079496    
 0.5883920504    
 0.4116079496    
 0.5883920504    
 0.4116079496    
 0.5883920504    
 0.4116079496    
 0.5883920505    
 0.4116079496    
 0.5883920505    
 0.4116079496    
 0.5883920505    
 0.4116079496    
 0.5883920505    
 0.4116079496    
 0.5883920504    
 0.4116079496    
 0.5883920504    
 0.4116079575    
 0.5883920949    
 0.4116082585    
 0.5883930482    
 0.4116113560    
 0.5884006164    
 0.4116291103    
 0.5884380884    
 0.4116978876    
 0.5885699211    
 0.4118967100    
 0.5889291367    
 0.4123402768    
 0.5897223462    
 0.4130919212    
 0.5911503759    
 0.4137117175    
 0.5928797320    
 0.4100789060    
 0.5899210910    
 0.4071202649    
 0.5862882794    
 0.4088496209    
 0.5869080756    
 0.4102776505    
 0.5876597197    
 0.4110708597    
 0.5881032863    
 0.4114300749    
 0.5883021083    
 0.4115619071    
 0.5883708851    
 0.4115993786    
 0.5883886389    
 0.4116069461    
 0.5883917356    
 0.4116078985    
 0.5883920358    
 0.4116079421    
 0.5883920426    
 0.4116079409    
 0.5883920414    
 0.4116079395    
 0.5883920399    
 0.4116079379    
 0.5883920382    
 0.4116079360    
 0.5883920362    
 0.4116079338    
 0.5883920339    
 0.4116079312    
 0.5883920312    
 0.4116079281    
 0.5883920280    
 0.4116079245    
 0.5883920242    
 0.4116079203    
 0.5883920198    
 0.4116079154    
 0.5883920147    
 0.4116079096    
 0.5883920087    
 0.4116079029    
 0.5883920016    
 0.4116078950    
 0.5883919934    
 0.4116078858    
 0.5883919838    
 0.4116078750    
 0.5883919725    
 0.4116078624    
 0.5883919593    
 0.4116078477    
 0.5883919439    
 0.4116078305    
 0.5883919259    
 0.4116078104    
 0.5883919049    
 0.4116077868    
 0.5883918803    
 0.4116077593    
 0.5883918515    
 0.4116077271    
 0.5883918179    
 0.4116076895    
 0.5883917785    
 0.4116076454    
 0.5883917325    
 0.4116075940    
 0.5883916788    
 0.4116075338    
 0.5883916159    
 0.4116074635    
 0.5883915424    
 0.4116073813    
 0.5883914564    
 0.4116072851    
 0.5883913559    
 0.4116071727    
 0.5883912385    
 0.4116070413    
 0.5883911011    
 0.4116068877    
 0.5883909405    
 0.4116067080    
 0.5883907527    
 0.4116064980    
 0.5883905332    
 0.4116062524    
 0.5883902765    
 0.4116059653    
 0.5883899764    
 0.4116056296    
 0.5883896256    
 0.4116052371    
 0.5883892154    
 0.4116047782    
 0.5883887357    
 0.4116042417    
 0.5883881750    
 0.4116036144    
 0.5883875194    
 0.4116028810    
 0.5883867528    
 0.4116020235    
 0.5883858566    
 0.4116010210    
 0.5883848088    
 0.4115998488    
 0.5883835837    
 0.4115984783    
 0.5883821513    
 0.4115968760    
 0.5883804767    
 0.4115950027    
 0.5883785187    
 0.4115928123    
 0.5883762295    
 0.4115902515    
 0.5883735531    
 0.4115872573    
 0.5883704238    
 0.4115837566    
 0.5883667653    
 0.4115796637    
 0.5883624877    
 0.4115748783    
 0.5883574866    
 0.4115692833    
 0.5883516395    
 0.4115627417    
 0.5883448033    
 0.4115550933    
 0.5883368106    
 0.4115461509    
 0.5883274659    
 0.4115356955    
 0.5883165406    
 0.4115234711    
 0.5883037671    
 0.4115091783    
 0.5882888331    
 0.4114924670    
 0.5882713731    
 0.4114729281    
 0.5882509599    
 0.4114500829    
 0.5882270943    
 0.4114233717    
 0.5881991923    
 0.4113921401    
 0.5881665718    
 0.4113556229    
 0.5881284348    
 0.4113129250    
 0.5880838492    
 0.4112629999    
 0.5880317249    
 0.4112046234    
 0.5879707883    
 0.4111363638    
 0.5878995506    
 0.4110565466    
 0.5878162720    
 0.4109632127    
 0.5877189194    
 0.4108540705    
 0.5876051171    
 0.4107264388    
 0.5874720895    
 0.4105771803    
 0.5873165942    
 0.4104026235    
 0.5871348438    
 0.4101984708    
 0.5869224150    
 0.4099596913    
 0.5866741431    
 0.4096803938    
 0.5863839984    
 0.4093536782    
 0.5860449440    
 0.4089714614    
 0.5856487703    
 0.4085242664    
 0.5851858975    
 0.4080009843    
 0.5846451631    
 0.4073885871    
 0.5840135952    
 0.4066720691    
 0.5832769609    
 0.4058363930    
 0.5824243956    
 0.4048761991    
 0.5814660476    
 0.4038230949    
 0.5804741331    
 0.4027964242    
 0.5796485825    
 0.4020573425    
 0.5793729507    
 0.4019926580    
 0.5801457780    
 0.4026524153    
 0.5818835579    
 0.5796514732    
 0.3997202491    
 0.5731401113    
 0.3931118195    
 0.5820739950    
 0.6006346735    
 0.5053974425    
 0.6076363595    
 0.4343422426    
 0.3076323878    
 0.3008093229    
 0.6111744125    
 0.3659583548    
 0.3147691247    
 0.6141112827    
 0.2965257175    
 0.3041544822    
 0.3213791782    
 0.6180753605    
 0.3273607676    
 0.6225575502    
 0.6406281768    
 0.6507375350    
 0.5697724541    
 0.6520692032    
 0.5023478535    
 0.6511036049    
 0.3524805075    
 0.4364927663    
 0.3528058561    
 0.6495272327    
 0.3745386173    
 0.3566235116    
 0.3541415757    
 0.6480647551    
 0.3545098367    
 0.6467975765    
 0.3541691239    
 0.6457935306    
 0.3535010568    
 0.6447691477    
 0.3524148591    
 0.6435744746    
 0.3509829933    
 0.3502222458    
 0.6429334853    
 0.3509835348    
 0.6435289951    
 0.3523955620    
 0.6446021890    
 0.3534080143    
 0.6453125025    
 0.3539207582    
 0.6456447183    
 0.3541215349    
 0.6457638295    
 0.3541817647    
 0.6457960992    
 0.3541949487    
 0.6458022615    
 0.3541968601    
 0.6458031073    
 0.3541976531    
 0.6458048646    
 0.3542026684    
 0.6458160979    
 0.3542259136    
 0.6458633543    
 0.3543001224    
 0.6460076899    
 0.3544714907    
 0.6463411032    
 0.3547420758    
 0.6469202540    
 0.3548889747    
 0.6475309013    
 0.3541424634    
 0.6471926657    
 0.3528073322    
 0.6458575345    
 0.3524690965    
 0.6451110231    
 0.3530797438    
 0.6452579219    
 0.3536588944    
 0.6455285069    
 0.3539923075    
 0.6456998750    
 0.3541366428    
 0.6457740810    
 0.3541838988    
 0.6457973232    
 0.3541951291    
 0.6458023304    
 0.3541968524    
 0.6458029932    
 0.3541969732    
 0.6458030255    
 0.3541969732    
 0.6458030256    
 0.3541969733    
 0.6458030257    
 0.3541969734    
 0.6458030258    
 0.3541969734    
 0.6458030258    
 0.3541969735    
 0.6458030259    
 0.3541969736    
 0.6458030259    
 0.3541969736    
 0.6458030259    
 0.3541969736    
 0.6458030260    
 0.3541969737    
 0.6458030260    
 0.3541969737    
 0.6458030260    
 0.3541969737    
 0.6458030261    
 0.3541969737    
 0.6458030261    
 0.3541969737    
 0.6458030261    
 0.3541969738    
 0.6458030261    
 0.3541969738    
 0.6458030261    
 0.3541969738    
 0.6458030261    
 0.3541969738    
 0.6458030261    
 0.3541969738    
 0.6458030262    
 0.3541969738    
 0.6458030262    
 0.3541969738    
 0.6458030262    
 0.3541969738    
 0.6458030262    
 0.3541969739    
 0.6458030262    
 0.3541969739    
 0.6458030262    
 0.3541969739    
 0.6458030262    
 0.3541969739    
 0.6458030262    
 0.3541969739    
 0.6458030263    
 0.3541969739    
 0.6458030263    
 0.3541969740    
 0.6458030263    
 0.3541970061    
 0.6458031469    
 0.3541976689    
 0.6458048701    
 0.3542026759    
 0.6458161002    
 0.3542259180    
 0.6458633561    
 0.3543001238    
 0.6460076912    
 0.3544714917    
 0.6463411041    
 0.3547420764    
 0.6469202545    
 0.3548889749    
 0.6475309014    
 0.3541424632    
 0.6471926655    
 0.3528073316    
 0.6458575338    
 0.3524690955    
 0.6451110221    
 0.3530797424    
 0.6452579204    
 0.3536588925    
 0.6455285049    
 0.3539923051    
 0.6456998725    
 0.3541366398    
 0.6457740779    
 0.3541838952    
 0.6457973194    
 0.3541951248    
 0.6458023259    
 0.3541968472    
 0.6458029878    
 0.3541969670    
 0.6458030191    
 0.3541969660    
 0.6458030181    
 0.3541969647    
 0.6458030169    
 0.3541969633    
 0.6458030154    
 0.3541969616    
 0.6458030136    
 0.3541969596    
 0.6458030116    
 0.3541969573    
 0.6458030092    
 0.3541969545    
 0.6458030064    
 0.3541969513    
 0.6458030031    
 0.3541969476    
 0.6458029992    
 0.3541969431    
 0.6458029947    
 0.3541969380    
 0.6458029894    
 0.3541969320    
 0.6458029832    
 0.3541969249    
 0.6458029759    
 0.3541969166    
 0.6458029675    
 0.3541969070    
 0.6458029575    
 0.3541968957    
 0.6458029459    
 0.3541968825    
 0.6458029324    
 0.3541968670    
 0.6458029165    
 0.3541968490    
 0.6458028980    
 0.3541968278    
 0.6458028763    
 0.3541968032    
 0.6458028509    
 0.3541967743    
 0.6458028213    
 0.3541967405    
 0.6458027867    
 0.3541967011    
 0.6458027461    
 0.3541966549    
 0.6458026988    
 0.3541966010    
 0.6458026434    
 0.3541965379    
 0.6458025786    
 0.3541964642    
 0.6458025029    
 0.3541963779    
 0.6458024144    
 0.3541962771    
 0.6458023109    
 0.3541961593    
 0.6458021899    
 0.3541960215    
 0.6458020484    
 0.3541958604    
 0.6458018830    
 0.3541956720    
 0.6458016897    
 0.3541954517    
 0.6458014635    
 0.3541951943    
 0.6458011992    
 0.3541948932    
 0.6458008901    
 0.3541945412    
 0.6458005288    
 0.3541941297    
 0.6458001063    
 0.3541936485    
 0.6457996123    
 0.3541930859    
 0.6457990347    
 0.3541924282    
 0.6457983595    
 0.3541916592    
 0.6457975700    
 0.3541907601    
 0.6457966470    
 0.3541897088    
 0.6457955678    
 0.3541884798    
 0.6457943060    
 0.3541870428    
 0.6457928308    
 0.3541853627    
 0.6457911061    
 0.3541833983    
 0.6457890895    
 0.3541811016    
 0.6457867319    
 0.3541784164    
 0.6457839753    
 0.3541752768    
 0.6457807525    
 0.3541716061    
 0.6457769845    
 0.3541673143    
 0.6457725791    
 0.3541622964    
 0.6457674285    
 0.3541564295    
 0.6457614066    
 0.3541495700    
 0.6457543662    
 0.3541415498    
 0.6457461348    
 0.3541321726    
 0.6457365111    
 0.3541212087    
 0.6457252597    
 0.3541083895    
 0.6457121053    
 0.3540934011    
 0.6456967261    
 0.3540758762    
 0.6456787459    
 0.3540553854    
 0.6456577252    
 0.3540314265    
 0.6456331499    
 0.3540034123    
 0.6456044193    
 0.3539706560    
 0.6455708311    
 0.3539323543    
 0.6455315648    
 0.3538875676    
 0.6454856611    
 0.3538351969    
 0.6454319993    
 0.3537739564    
 0.6453692698    
 0.3537023421    
 0.6452959421    
 0.3536185938    
 0.6452102288    
 0.3535206521    
 0.6451100415    
 0.3534061065    
 0.6449929413    
 0.3532721352    
 0.6448560804    
 0.3531154344    
 0.6446961338    
 0.3529321351    
 0.6445092209    
 0.3527177047    
 0.6442908135    
 0.3524668319    
 0.6440356297    
 0.3521732901    
 0.6437375112    
 0.3518297771    
 0.6433892806    
 0.3514277251    
 0.6429825789    
 0.3509570726    
 0.6425076721    
 0.3504059985    
 0.6419532444    
 0.3497606326    
 0.6413062564    