# vtk DataFile Version 3.0
./plots/steadyStateVorticity.vtk
ASCII
DATASET UNSTRUCTURED_GRID

POINTS   38820 double
  3.798663090      0.7957371950E-01   0.000000000    
  3.731242310      0.1858190200       0.000000000    
  3.612510690     -0.7660720800E-01   0.000000000    
  3.702838590     -0.4485832280E-01   0.000000000    
  3.879442720     -0.7483201590E-01   0.000000000    
  3.967311370      0.9732478890E-01   0.000000000    
  3.852712710      0.2187305670       0.000000000    
  4.129432810      0.5769516240E-01   0.000000000    
  4.032715270     -0.3932546520E-01   0.000000000    
  3.658478680      0.9332109890E-01   0.000000000    
  3.581281820     -0.1694949030E-02   0.000000000    
  3.754810280     -0.1747149740       0.000000000    
  3.632272170     -0.1618736000       0.000000000    
  3.985406630      0.2498965110       0.000000000    
  4.091491730      0.1893853320       0.000000000    
  3.614185920      0.2236646970       0.000000000    
  3.734911100      0.3115183740       0.000000000    
  3.532201650     -0.1001658850       0.000000000    
  3.524715780      0.1141334650       0.000000000    
  3.457257670      0.2785588760E-03   0.000000000    
  3.871481920     -0.2603375590       0.000000000    
  4.024417190     -0.1815213780       0.000000000    
  4.160397440     -0.9398359770E-01   0.000000000    
  4.263325510      0.9069290410E-02   0.000000000    
  3.717147370     -0.5176558820       0.000000000    
  3.684231360     -0.3323438110       0.000000000    
  4.590325660      0.1196552800E-02   0.000000000    
  4.115519420      0.3568354230       0.000000000    
  3.900870450      0.3864910590       0.000000000    
  3.737296130      0.4665507980       0.000000000    
  3.578174120      0.3857306560       0.000000000    
  3.462951640      0.2484243390       0.000000000    
  3.405179310     -0.1196466780       0.000000000    
  3.503266090     -0.2446308350       0.000000000    
  4.175747150     -0.2591288310       0.000000000    
  4.334141030     -0.1478369420       0.000000000    
  3.858251560     -0.4383995660       0.000000000    
  4.259516410      0.1852714030       0.000000000    
  3.599445600     -0.4722040230       0.000000000    
  4.432022180      0.4620883500E-01   0.000000000    
  3.378228320      0.1171233220       0.000000000    
  3.324094610     -0.1183939290E-01   0.000000000    
  4.670688340     -0.1055202780       0.000000000    
  4.518237840     -0.1207881650       0.000000000    
  4.729424780      0.4064317890E-01   0.000000000    
  4.825633320     -0.8902326470E-01   0.000000000    
  4.022843510      0.5489150100       0.000000000    
  3.861113850      0.5516200050       0.000000000    
  3.620060330      0.5342406170       0.000000000    
  3.339599200     -0.2381956090       0.000000000    
  3.401685670      0.3892173030       0.000000000    
  4.316649280     -0.3260542270       0.000000000    
  4.023087910     -0.3593996350       0.000000000    
  4.327691300      0.3866644370       0.000000000    
  3.837634480     -0.5874430200       0.000000000    
  3.530264440     -0.3887035590       0.000000000    
  4.457136320      0.2517888970       0.000000000    
  3.287413820      0.2580166010       0.000000000    
  3.218332210      0.9041793540E-01   0.000000000    
  3.214280150     -0.3637432130E-01   0.000000000    
  3.275026630     -0.1259381890       0.000000000    
  4.610551610     -0.2296181490       0.000000000    
  4.601557610      0.1468189930       0.000000000    
  4.917630840      0.8001576650E-01   0.000000000    
  4.921893980      0.2557453320       0.000000000    
  4.891536670     -0.2133939610       0.000000000    
  3.596181860     -0.6001055190       0.000000000    
  3.733789960      0.6290423330       0.000000000    
  3.913449140      0.7272446470       0.000000000    
  3.483793110      0.5248172310       0.000000000    
  4.194000800     -0.4429287210       0.000000000    
  4.222401880      0.5503421410       0.000000000    
  4.011865380     -0.5721002760       0.000000000    
  3.395382440     -0.3726636140       0.000000000    
  4.493192060      0.4150155980       0.000000000    
  3.272442940      0.4007547460       0.000000000    
  3.129340000      0.2089225020       0.000000000    
  3.112285310     -0.4890047030E-02   0.000000000    
  3.089891630      0.9910340320E-01   0.000000000    
  4.471597510     -0.2863861870       0.000000000    
  4.771430020      0.2108700170       0.000000000    
  4.749696840     -0.2335221060       0.000000000    
  5.089410010      0.2128153160       0.000000000    
  4.994235110     -0.1014616810       0.000000000    
  5.092730910      0.2921767290E-01   0.000000000    
  3.223807190     -0.2198596660       0.000000000    
  3.145859770     -0.1313881370       0.000000000    
  3.464906450     -0.5208013270       0.000000000    
  3.722312440     -0.6740120800       0.000000000    
  3.584915380     -0.7477844640       0.000000000    
  3.702151700      0.8309359000       0.000000000    
  3.899769010      0.9416535150       0.000000000    
  3.571519060      0.6654172030       0.000000000    
  4.125753210      0.7206247130       0.000000000    
  4.228946560     -0.6473298410       0.000000000    
  4.420172650      0.5594819720       0.000000000    
  3.331938860      0.5164438070       0.000000000    
  3.156579970      0.3489049390       0.000000000    
  3.007938940      0.1630882600       0.000000000    
  4.408009840     -0.4914198810       0.000000000    
  4.630524880      0.3302889880       0.000000000    
  4.642606180     -0.3996900370       0.000000000    
  5.003673500      0.3625086000       0.000000000    
  4.856512500     -0.3621025980       0.000000000    
  5.030264450     -0.2801403080       0.000000000    
  5.256351330      0.8885191810E-01   0.000000000    
  5.271348580      0.2668084360       0.000000000    
  3.024655800     -0.8904158330E-01   0.000000000    
  2.987446390      0.3663761270E-01   0.000000000    
  3.234509650     -0.3466703930       0.000000000    
  3.125871840     -0.2566707320       0.000000000    
  3.296902200     -0.4952829160       0.000000000    
  3.876117360     -0.7339589550       0.000000000    
  3.718981040     -0.8549796990       0.000000000    
  3.484158030     -0.6653722190       0.000000000    
  3.560784930     -0.8815597490       0.000000000    
  3.745640820       1.044100690       0.000000000    
  3.486727540      0.8178521940       0.000000000    
  3.561896300      0.9979287540       0.000000000    
  4.049481350      0.8707158820       0.000000000    
  4.324118770      0.7281129820       0.000000000    
  3.404167520      0.6583174040       0.000000000    
  3.188989530      0.4904171890       0.000000000    
  3.022097090      0.2921905560       0.000000000    
  4.594614410     -0.6327660410       0.000000000    
  4.632725470      0.5450225370       0.000000000    
  4.410773880     -0.7031596600       0.000000000    
  4.830159030      0.4102279230       0.000000000    
  5.206523640     -0.1358733910       0.000000000    
  5.165796100      0.4025572220       0.000000000    
  5.446267620      0.1920050700       0.000000000    
  5.433694520     -0.3575759110E-01   0.000000000    
  5.015436620     -0.4849390890       0.000000000    
  4.808620860     -0.5603409930       0.000000000    
  5.640803330      0.6895999920E-01   0.000000000    
  5.829755390      0.1442291530       0.000000000    
  2.907032080     -0.6850788930E-01   0.000000000    
  2.917063170      0.1191335440       0.000000000    
  3.050990040     -0.1871168520       0.000000000    
  3.091875270     -0.3740703350       0.000000000    
  3.168363240     -0.4666898370       0.000000000    
  2.862826800      0.3711941650E-01   0.000000000    
  4.064270130     -0.7940206280       0.000000000    
  3.768873690      -1.013013520       0.000000000    
  3.347415780     -0.6477275530       0.000000000    
  3.618403630      -1.011620130       0.000000000    
  3.425112400     -0.8071121280       0.000000000    
  3.625286400       1.157951640       0.000000000    
  3.369659060      0.9674715500       0.000000000    
  3.900676480       1.115391540       0.000000000    
  3.778764180       1.230737070       0.000000000    
  3.243775000      0.6352829520       0.000000000    
  4.223139960      0.8985992660       0.000000000    
  3.306984780      0.7922077050       0.000000000    
  3.043574560      0.4416635570       0.000000000    
  4.523430200      0.7290354150       0.000000000    
  4.840895040      0.6351327540       0.000000000    
  4.695031330      0.7315471680       0.000000000    
  5.014869130      0.5277520040       0.000000000    
  5.402200560      0.4337209000       0.000000000    
  5.421913280     -0.2710545140       0.000000000    
  5.215266810     -0.3835617660       0.000000000    
  5.676882490      0.3239399740       0.000000000    
  5.631500870     -0.1621346230       0.000000000    
  4.980756180     -0.7055176130       0.000000000    
  5.830305370     -0.5452393150E-01   0.000000000    
  6.013147440      0.6373198440E-01   0.000000000    
  6.177160050      0.1649479620       0.000000000    
  2.908560010      0.2212297690       0.000000000    
  3.011759250     -0.2784981740       0.000000000    
  3.049452280     -0.5002301640       0.000000000    
  2.951883270     -0.1783692380       0.000000000    
  2.758129640      0.5034766670E-01   0.000000000    
  2.791816140     -0.5136459680E-01   0.000000000    
  4.763081560     -0.7779340040       0.000000000    
  4.287991160     -0.8801991220       0.000000000    
  3.901029110     -0.9201201010       0.000000000    
  3.709595110      -1.163561070       0.000000000    
  3.456639390     -0.9831190300       0.000000000    
  3.242905540     -0.7802056890       0.000000000    
  3.169075320     -0.6131549030       0.000000000    
  3.435056950       1.178144620       0.000000000    
  3.598472060       1.348480310       0.000000000    
[...]
POINT_DATA   38820
SCALARS psi double
LOOKUP_TABLE default
-0.1634422472    
-0.3771361157    
 0.1612172870    
 0.9405968797E-01
 0.1529230278    
-0.1954801659    
-0.4331664081    
-0.1140804961    
 0.7880437666E-01
-0.1950500463    
 0.3402565020E-02
 0.3549596904    
 0.3361703264    
-0.4801496429    
-0.3656687464    
-0.4568958270    
-0.6037163059    
 0.2129852852    
-0.2424011781    
-0.6826221649E-03
 0.5075933129    
 0.3552811184    
 0.1839426271    
-0.1779417817E-01
 0.8825076171    
 0.6438619413    
-0.2723249864E-02
-0.6421098891    
-0.7038611067    
-0.8239795986    
-0.7363548740    
-0.5136748522    
 0.2577462365    
 0.5037509831    
 0.4835177280    
 0.2799328121    
 0.7759520863    
-0.3518814699    
 0.8467257481    
-0.8825164158E-01
-0.2535130171    
 0.2572668883E-01
 0.1911971363    
 0.2234465012    
-0.7401638957E-01
 0.1579570841    
-0.8699649260    
-0.8922533319    
-0.9109128166    
 0.5020618745    
-0.7600542898    
 0.5770209114    
 0.6540801183    
-0.6611484923    
 0.9215709716    
 0.7441449997    
-0.4523887355    
-0.5445864923    
-0.2008030484    
 0.8069936042E-01
 0.2750644422    
 0.4062002304    
-0.2670608627    
-0.1410045491    
-0.4270915374    
 0.3640016346    
 0.9674145718    
-0.9661021753    
-0.9682674123    
-0.9225497372    
 0.7444114108    
-0.8441263801    
 0.8908669634    
 0.7351610667    
-0.6773303032    
-0.7908312234    
-0.4564415018    
 0.1087241787E-01
-0.2223150009    
 0.5071185913    
-0.3678375477    
 0.4049874522    
-0.3534824486    
 0.1760467293    
-0.5016289711E-01
 0.4724255069    
 0.2913707067    
 0.9209889856    
 0.9855371053    
  1.022119417    
-0.9932089770    
-0.8973539105    
 -1.008747195    
-0.9325168775    
 0.8999988443    
-0.8236242259    
-0.9352842624    
-0.7202329360    
-0.3657716643    
 0.7714030383    
-0.5582287377    
 0.6484007636    
-0.5669059222    
 0.5806793204    
 0.4576541767    
-0.1483975110    
-0.4216476210    
 0.2014415618    
-0.8363021810E-01
 0.7088555469    
 0.5521662536    
 0.9173994514    
 0.9727828931    
 0.9782970620    
  1.021625556    
 0.9892021987    
-0.8278465640    
 -1.033811172    
-0.9024269304    
-0.9150453648    
-0.9032789692    
 -1.034682298    
-0.9260491187    
-0.6297698227    
 0.8440110018    
-0.7883015264    
 0.8869461011    
-0.6417867453    
 0.2286737934    
-0.6008433803    
-0.3063805717    
 0.5928408087E-01
 0.6974198694    
 0.7774152739    
-0.1098506279    
-0.2198322664    
 0.1574952360    
-0.2716692452    
 0.4142509279    
 0.7686568867    
 0.8979164341    
-0.8583177143E-01
 0.9419356066    
 0.8544835888    
  1.039815615    
 0.8774948032    
  1.048065450    
-0.7005203208    
-0.9621072947    
-0.7266798363    
-0.5912893378    
 -1.051102958    
-0.8773463605    
 -1.073890813    
-0.8812477948    
-0.8748679813    
-0.8119052864    
-0.8505253103    
-0.7296643638    
-0.6138953431    
 0.4209068462    
 0.5777189315    
-0.4726750628    
 0.2540628852    
 0.8126210858    
 0.8459365970E-01
-0.9576230069E-01
-0.2377606830    
-0.4950160643    
 0.6030484809    
 0.9586244380    
 0.4008667718    
-0.1177575145    
 0.1198974282    
 0.8413620298    
 0.8801541199    
 0.9132183357    
 0.6853400040    
 0.9311661195    
  1.088578239    
  1.051279589    
-0.6909424065    
-0.4415153521    
-0.3424317327    
-0.4916007881    
-0.7596844333    
 -1.110165228    
 -1.034686480    
 -1.054122452    
-0.8215409161    
-0.8432560138    
-0.8095007757    
-0.8170159683    
-0.7550586949    
-0.6825980228    
 0.5609334363    
 0.7644108887    
 0.2399859338    
-0.4413457047    
 0.4140207615    
-0.7812695578    
 0.8112420352    
 0.6151678297    
-0.3155268399    
 0.3761275343    
-0.1335710737    
 0.5698726696E-01
-0.1692504039    
 0.4291243055E-01
 0.7755896431    
 0.8509050359    
 0.7604244578    
 0.8166829567    
 0.7294245956    
 0.6945445201    
 0.9994108420    
 0.4613222921    
  1.122141166    
  1.096082663    
-0.4191246436    
-0.2397501083    
-0.2039516659    
-0.2568165710    
-0.1579815462    
-0.5293825381    
-0.8180585137    
 -1.138738853    
 -1.101057731    
-0.7054822885    
 -1.040210739    
-0.7139920041    
-0.7696273924    
-0.6899568131    
-0.7559020333    
 0.6793422845    
 0.7699757501    
-0.6673413461    
-0.9404132832    
 0.8287932955    
-0.5554407426    
 0.6042304812    
-0.3440752373    
 0.3181797602    
 0.9104272458E-01
-0.1329041497    
-0.4629424573    
 0.6501479228    
 0.5030099614E-01
-0.2702652701    
 0.1323267743    
 0.5328484499    
 0.6782856622    
 0.7558053440    
 0.7202068291    
 0.5646817882    
 0.6842896716    
 0.4503655856    
 0.8289271517    
 0.2867702313    
  1.053963744    
  1.000274774    
  1.147324259    
 0.4438228618    
-0.1458609247    
-0.1250005840    
-0.2687827484    
-0.1017906137    
-0.8192884691E-01
-0.4991883482    
-0.9342689068    
-0.6716787163E-01
-0.2732144888    
 -1.160545929    
 -1.154322496    
-0.6784011908    
 0.7662254769    
-0.7361971236    
-0.7141135416    
-0.5110452840    
 -1.084081001    
-0.7742545933    
 0.8242711245    
-0.5680737425    
-0.6368919664    
-0.5354632538    
 0.5897395596    
-0.3503158499    
-0.6576168870    
 0.7266561200    
-0.5301745677    
-0.2704433387    
 0.3681053397    
 0.3335092609    
-0.6441984352E-02
 0.6878491777    
 0.6385918879    
 0.6255832737    
 0.5734395969    
 0.5834201327    
 0.3030824099    
 0.2050299974    
 0.8740311477    
  1.016967664    
  1.147746282    
  1.106372099    
 0.5709014766    
 0.3406061358    
 0.8393717638E-01
-0.5680103530E-01
 0.2604258539    
 0.2757885890    
-0.4418678454E-01
-0.3400819060E-01
-0.2911267427    
-0.1542136440    
-0.6659188431    
-0.2741866007E-01
-0.1064110753    
-0.1126840377    
 -1.034450062    
-0.4683382563    
-0.4261089203    
 -1.183798139    
 -1.192901471    
-0.9552285332    
-0.7752318290    
-0.3537189416    
 0.8065124304    
-0.5631873824    
-0.4381738615    
-0.6492816542    
-0.7083063142    
-0.4753860648    
-0.6497687753    
 0.4800213954    
 0.3470034962    
 0.7191782716    
 0.6106833551    
 0.7151498346    
 0.6825519321    
 0.3792615625    
 0.5148965176    
 0.3368832682    
 0.3923422113    
  1.163111250    
 0.9498559211    
 0.7280760551    
 0.1435671198    
  1.005292814    
  1.151508312    
 0.1950950605    
-0.1019766388    
-0.2776645713    
 0.5804303205    
-0.3388505903    
 0.3467897592    
 0.1329947064    
-0.7221597813E-01
 0.1351968893    
 0.3132125335    
 0.1452167752    
-0.1134323594E-01
-0.1700705772E-01
-0.5951665543E-01
-0.3973447500    
-0.2030227973    
-0.2431637257E-01
-0.8670000299E-02
-0.4321532321E-01
-0.8046294305    
-0.2392888945    
 -1.119576004    
-0.1748052811    
 -1.106888120    
 -1.217271766    
-0.2904151263    
-0.7650227506    
-0.9591421242    
-0.2630143655    
-0.5388824937    
-0.6302143426    
 0.5490156866    
-0.6736523449    
-0.5923691522    
 0.6437600323    
 0.6748834990    
 0.6610193661    
 0.5650134866    
 0.4771798368    
 0.2055973915    
 0.2084724356    
 0.1931413271    
  1.035557562    
 0.1726894886    
 0.7579767127    
  1.206789249    
 0.4497103433    
-0.5193111986    
 0.7827282345    
-0.5410864959    
 0.5678140665    
-0.2827962031    
 0.3509199209    
 0.1397376246    
-0.7290518119E-01
 0.5375816674E-02
-0.2151875213    
-0.4002484133    
-0.3886841463    
-0.2658074690    
 0.9798697514    
  1.140496147    
 0.6571542694E-01
 0.4625021478    
 0.2083198787    
 0.9915793959E-01
 0.4444504985E-01
-0.1769919818E-03
-0.1176584552E-02
-0.4220209917E-02
-0.4192590805E-02
-0.2519282439E-01
-0.8402100975E-01
-0.6470558097E-02
-0.1860527350E-02
-0.1318322830E-01
-0.5251975065    
-0.2838296496    
-0.9353000131    
 -1.188601163    
-0.1261774688    
-0.9070980776E-01
-0.6096620213E-01
 -1.221145966    
 -1.114407796    
-0.1544064185    
-0.3116388712    
-0.6334548123    
-0.4185913693    
-0.4187508405    
 0.6204360447    
 0.6179692774    
 0.5617844701    
 0.3896519944    
 0.1358369602    
 0.1097687506    
 0.9226455041    
 0.2773437241    
  1.131584078    
 0.5821489395    
-0.6175981563    
-0.9473657852    
-0.7430466723    
 0.7580934095    
-0.5159100950    
 0.5538481448    
-0.2885296152    
 0.3501408795    
-0.7988714211E-01
 0.1479665521    
 0.1795837128    
 0.3653928179    
-0.5656254593    
-0.4928435096    
-0.5385925879E-01
-0.1574969264    
-0.4811367280    
-0.4174402303    
 0.9459746692    
  1.112019194    
 0.8667808420E-01
  1.230862718    
 0.5750802956E-01
 0.2326808040E-01
 0.4975009532    
 0.2884921923    
 0.2027965126E-01
 0.3930858619E-01
 0.7758240483E-01
 0.9240086148E-02
 0.2140766578E-01
 0.4326326592E-02
 0.6167066680E-03
-0.1532164499E-05
-0.1903845921E-03
-0.2446965658E-03
-0.1979783212E-02
-0.1084457729E-01
-0.1352198443E-02
-0.4299155293E-01
-0.3711728379E-02
-0.5261332058E-03
-0.3916752232    
-0.6648265527    
-0.1251318696    
 -1.063494437    
-0.1614383588E-01
 -1.234889615    
-0.4175485635E-01
-0.2556407462E-01
-0.6424751769E-01
-0.1202042269    
-0.5338988818    
-0.1851746523    
-0.2451019450    
 0.4421934891    
 0.4908908454    
 0.4279612173    
 0.8202173752E-01
 0.2564902448    
 0.6352241742    
-0.5852134606    
 -1.226756626    
 -1.099912543    
-0.9221708458    
-0.7144485829    
-0.4947805790    
 0.7357523331    
 0.5382932108    
-0.2784284038    
 0.3627880650    
 0.6515414168E-01
-0.7977276046E-01
-0.5980178989    
-0.5663294654    
 0.4915982705    
 0.5832901199    
 0.3178036601    
 0.6643958668E-01
-0.5162551808    
-0.5304680704    
-0.2135915544    
-0.4317132319    
 0.1453870857    
 0.9208844794    
  1.062282915    
 0.4003059952E-01
  1.209057316    
  1.054499121    
 0.2319206260E-01
 0.1632485428E-01
  1.235668193    
 0.6426342025    
 0.3816997078    
 0.7285875065E-02
 0.1235183633    
 0.1464157441E-01
 0.3124086877E-02
 0.4095355327E-01
 0.1235508755E-02
 0.1035149094E-01
-0.4821551091E-04
 0.1899860501E-02
 0.7341500663E-04
 0.2258122073E-03
-0.6526699811E-04
 0.1943808282E-03
 0.3213207613E-04
 0.3223602632E-03
-0.5181112751E-03
-0.4770286876E-02
 0.1086870434E-03
-0.2175952496E-01
-0.1653807589E-03
-0.1885865133    
-0.7280234378E-01
-0.8177831014    
-0.5235285810    
-0.2528942249E-02
-0.2645660336E-03
 -1.187829235    
-0.8854177668E-02
-0.1859166360E-01
-0.4550796822E-01
-0.3042851422    
-0.1003674563    
-0.6202194967E-01
 0.3492013668    
 0.2375445267    
-0.4698686228    
 -1.275200119    
 -1.217555953    
 -1.074251305    
-0.8881020885    
-0.6813718424    
 0.7096054528    
-0.4672799036    
 0.5056977972    
-0.2563339228    
 0.2716020364    
 0.6866169103E-01
-0.5337956595    
-0.5619265469    
 0.5316318589    
 0.5943856630    
 0.3762633516    
-0.5516009562    
-0.4912265943    
 0.1104651040    
 0.5408897387    
 0.5621421590    
-0.5099135805    
-0.3252962657    
 0.5585325321E-01
 0.1102697403    
  1.073832296    
 0.9031305140    
 0.1759493247E-01
 0.4810378839E-02
  1.165335039    
  1.264864337    
  1.211610631    
 0.7958037268    
 0.5097497091    
 0.1867099601    
 0.5116286441E-02
 0.2224322572E-02
 0.7085446028E-03
 0.7188437725E-01
 0.2155929011E-01
 0.1006167522E-03
-0.3093260231E-03
 0.4602246275E-04
-0.2246053035E-04
 0.4884901948E-02
 0.7033769918E-03
-0.5808843456E-04
-0.1251084320E-03
 0.3264678453E-03
-0.6910221555E-04
 0.1483573084E-03
 0.1617612578E-03
 0.2009287930E-03
-0.1851180669E-03
-0.2033767079E-02
 0.7048056255E-04
-0.1105753651E-01
 0.8867877731E-04
-0.1202142447    
-0.4160811984E-01
-0.2776107531    
 0.1164799428E-03
-0.3026532305E-04
-0.4828678887E-02
-0.9949125989    
-0.6751974862    
-0.1435032972    
 0.2700229862    
 -1.197370333    
 -1.288515205    
 -1.201856888    
 -1.036981966    
-0.1723962208E-02
-0.8481490808E-02
-0.2603463816E-01
-0.3603347270E-01
-0.8479349085    
-0.6447338104    
 0.6758556972    
-0.4316296403    
 0.2806880841    
 0.4668353464    
-0.1940869884    
-0.3606326327E-01
-0.3988165615    
-0.2870897876    
-0.4925015777    
-0.4869448903    
 0.4029522451    
 0.5167592612    
-0.4114455612    
 0.4297955064    
 0.5225240359    
 0.2298913334    
 0.3256242138    
 0.4931907567    
-0.3910135782    
 0.8661727761E-01
-0.4870437553    
-0.1556931741    
 0.2412791989E-01
 0.8762283965    
  1.059226231    
-0.2902009889    
-0.4381679623    
 0.3243794830E-01
 0.3450554491E-02
 0.5329044590E-02
  1.299615339    
  1.255132912    
  1.212061991    
 0.9445058003    
 0.6576541011    
 0.2726985160    
 0.4802463664E-03
 0.1200910202E-02
 0.1191123151    
 0.4056446590E-04
 0.4157112799E-01
-0.1492311683E-03
-0.1715235951E-03
 0.2218998706E-02
 0.1129291774E-01
-0.1389858188E-03
 0.1930733310E-03
-0.7273028134E-04
-0.1668523448E-03
 0.5318630425E-04
-0.1522236497E-03
-0.1251557623E-03
-0.7522807709E-04
-0.9088065250E-04
-0.1857499993E-03
 0.2822507922E-03
-0.7093064002E-04
 0.9082531591E-04
 0.2806739306E-03
 0.3450327805E-03
-0.6062733326E-04
-0.2013920583E-03
 0.4426800221E-03
-0.1064897976E-03
 0.1018907984E-03
 0.1574769352E-05
-0.8728272649E-03
-0.5704071659E-02
 0.6372468468E-03
 0.1217383936E-03
-0.4853969418E-04
-0.7564541366E-01
-0.2392139143E-01
-0.1905803555    
 0.1544039716E-03
 0.4403423720E-03
 0.2863222903E-03
-0.3929340106    
 0.8775656144E-01
 -1.312406622    
 -1.041298973    
-0.8164562299    
 -1.309062702    
-0.8876614049E-03
-0.2273763516E-03
 0.3535954574E-03
-0.3693688006E-03
-0.3769071132E-02
-0.1444173648E-01
 0.4202014090E-04
-0.3660903307E-04
-0.1409191156E-04
 0.2096805657E-04
-0.1940432979E-03
-0.4723413879E-03
-0.4314358854E-01
 -1.158094757    
-0.9904543743    
-0.8079055598    
-0.6096410584    
 0.4223863846    
-0.4053297588    
 0.6381540503    
-0.1631535381E-03
-0.1796176148E-04
 0.1092204118E-03
-0.2121583144    
-0.1252620010    
-0.3335030253    
-0.3155322482    
-0.3019667401    
 0.1509444306    
 0.1439034161    
 0.2259230479    
 0.4750163090    
 0.4214621874    
 0.3226598680    
-0.3537574693    
-0.4294436352    
 0.4308993284    
 0.2261947098    
 0.5030471350    
 0.3788531436E-02
-0.1706813192E-01
 0.1729751107    
 0.8417092863    
  1.033550173    
-0.2544031754    
-0.1510419753E-01
-0.4310793645    
-0.4520890922    
-0.4485702618    
 0.5637858813E-02
 0.1138584460E-01
  1.314258290    
  1.321663059    
  1.196442982    
 0.8821497691E-04
  1.082538801    
 0.8149503191    
 0.3862038759    
 0.2314271596E-03
 0.1886194236    
-0.1620329622E-03
 0.8835633137E-04
-0.7215689064E-04
 0.5911405175E-02
 0.2413076047E-01
 0.7541580699E-01
-0.1203810981E-03
-0.1554583382E-03
 0.9644306551E-03
-0.2735932643E-03
 0.6088083107E-06
-0.2957305723E-03
-0.1259975468E-03
-0.1679290955E-03
-0.2826433627E-03
-0.2102793862E-03
 0.1290200836E-03
 0.8727563553E-05
 0.1423881178E-03
 0.1217251417E-03
 0.1927525476E-03
-0.5003590974E-04
 0.4061612858E-03
 0.2733192991E-04
 0.3945793202E-03
 0.2726745529E-03
-0.1257335061E-03
 0.1327267572E-03
 0.1931102396E-03
 0.3822154063E-03
 0.3558740177E-04
 0.2209957889E-03
 0.3813003368E-03
 0.3777791649E-03
 0.4497322929E-03
 0.2870925726E-03
 0.6729542852E-04
 0.3994194148E-03
-0.3229196711E-03
 0.4378633044E-03
-0.1406346598E-03
-0.5323524958E-04
 0.3283777692E-03
 0.7981965151E-04
-0.1258738233E-03
 0.1945671119E-04
-0.5371574552E-05
 0.2347403884E-04
 0.6086256624E-04
-0.3665091327E-03
 0.2518811178E-03
 0.2759382148E-03
 0.3497779185E-04
-0.3011370965E-02
-0.4798541575E-01
-0.1401826912E-01
-0.1298165062    
 0.2747360055E-03
 0.2624070945E-03
-0.2873680650    
 -1.180205098    
-0.9553078111    
-0.5293537927    
 -1.362849102    
 0.2167060341E-03
 0.3740610439E-05
 0.1714033581E-03
-0.3614958329E-03
-0.9593533232E-05
 0.1376213333E-03
-0.6334321072E-04
-0.3291426868E-04
 0.5186659354E-04
 0.9984793281E-04
-0.1133685826E-03
 0.2421399668E-04
-0.5738062037E-04
 0.1217152530E-03
-0.4790665305E-03
-0.3301853051E-03
-0.1700422834E-03
 0.3483026574E-03
-0.1585459558E-02
-0.5286803824E-04
-0.9609865304E-02
 -1.314091388    
 -1.096095255    
-0.9556177070    
-0.5809846458    
-0.7716904535    
-0.4332914531E-03
 0.2137707822E-03
-0.1987811996E-03
-0.1667578363E-03
-0.3263412365E-03
-0.2320697413E-03
-0.5475205323E-03
-0.3969089547    
-0.3446654117E-01
-0.2086548308    
-0.1958112304    
 0.8247763768E-01
 0.3335882531    
 0.1470325308    
-0.2077285026    
-0.2786112009    
 0.8815238692E-01
 0.3726947831    
 0.4127609831E-01
 0.1396534185E-01
-0.2238175623    
 0.6692430319E-01
 0.7939256747    
 0.6147675803    
 0.3115187481    
-0.2021840252    
 0.8390838283E-01
 0.3196948846    
-0.4193259018    
-0.4167986879    
-0.3514445038    
 0.4822443944    
 0.4588281608    
 0.5255057149E-02
  1.316642019    
  1.364553690    
  1.006143354    
  1.174944824    
 0.8430658703E-04
 0.4550436096E-03
  1.204099268    
 0.9728061266    
 0.5247823192    
-0.1761564520E-03
-0.2104006315E-03
-0.3774065338E-03
-0.1897102866E-03
 0.1419329647E-01
 0.4805052887E-01
 0.1292599139    
-0.7370823552E-04
 0.2851403254    
 0.3124984987E-02
 0.3971765525E-03
-0.1940552350E-05
-0.2032111953E-03
-0.8046767184E-04
 0.2383347936E-04
-0.1466964623E-03
-0.1653440272E-03
-0.1418269913E-03
-0.1589093688E-03
-0.5581817217E-04
 0.3798961608E-04
-0.3263548023E-04
-0.3960026523E-03
-0.2263778217E-04
-0.1122232573E-03
-0.2371622832E-03
-0.4521637395E-03
 0.1097947074E-03
 0.9029558291E-04
 0.1082145031E-03
 0.1805295703E-03
 0.4854318372E-03
 0.1547254750E-03
 0.3240766125E-03
 0.3093582967E-03
 0.7959455556E-04
 0.2849386196E-03
 0.1134367490E-03
 0.2894776610E-03
 0.2841158724E-03
 0.4148698813E-04
 0.1009800162E-03
 0.1938167633E-03
 0.2302037076E-04
 0.3516647554E-03
-0.1428591474E-04
 0.1316371626E-03
 0.1093918474E-03
-0.3524789050E-03
 0.3425872675E-03
 0.4062828674E-03
 0.1966223279E-03
 0.1477991671E-03
 0.2563708091E-03
 0.2021688054E-03
 0.4156647195E-03
 0.1000473907E-03
 0.1234949549E-03
 0.1344856997E-03
 0.2319014138E-03
-0.6017528320E-04
 0.1542495858E-03
-0.3376527814E-03
-0.1030736569E-03
 0.4045820246E-03
-0.1021735599E-03
 0.3609469685E-04
-0.1384146662E-03
 0.2394573292E-03
 0.1037332492E-03
 0.8797038362E-04
-0.1220306548E-03
 0.3246542196E-04
 0.1985228293E-03
 0.1033968212E-03
 0.6346571740E-04
 0.7442429200E-04
 0.1383275022E-03
 0.9036060757E-04
 0.7682348444E-04
-0.1379776935E-03
 0.5207322982E-04
 0.3366109988E-03
 0.1886264022E-04
-0.1650932308E-02
-0.3107034667E-01
-0.8452582179E-02
 0.2649229183E-03
-0.8937638470E-01
-0.2097941504    
 0.2831250480E-03
 -1.110760378    
-0.6795969986    
 -1.296305982    
 0.1644278751E-03
 0.1891256633E-03
-0.4111522620    
-0.4566655304E-03
-0.6902611068E-04
-0.4024136056E-03
 0.2374406731E-03
-0.2421701774E-03
-0.4977223463E-04
-0.4571251481E-04
-0.2790116553E-03
-0.1462293881E-03
-0.3370445984E-03
-0.1102006173E-03
-0.1793771414E-03
 0.1061551793E-04
 0.3301572696E-03
-0.1687136277E-03
 0.1175656526E-03
-0.4652584250E-03
 -1.388532353    
 -1.233309263    
 0.1506478366E-03
 0.1235036532E-03
 -1.114978681    
-0.9208159769    
-0.2169217544E-03
 0.1382489458E-03
-0.4433119699E-03
 0.4229263749E-04
-0.1118240659E-04
-0.1604923815E-03
-0.2716960732E-03
-0.5576317494E-03
-0.1209633382E-03
-0.1124529049E-03
-0.3402926762E-03
-0.7350976021    
-0.5583531660    
-0.5457068529E-02
-0.1197930132    
-0.6490305117E-01
 0.2237593666    
-0.1516240942    
-0.1857545300    
 0.4431909897E-01
 0.5713064941E-01
 0.2532491369    
 0.1904898747E-01
 0.6375576540E-02
-0.1869279386    
-0.2906583921    
-0.6747660526E-01
-0.3993490032    
 0.7453960451    
 0.4612629521    
 0.1750279439    
 0.3690057353E-02
-0.2723462284    
 0.1968925791    
 0.3799936833    
-0.4139488122    
-0.2943680017    
 0.4535828508    
 0.4014988607    
-0.2718295584    
 0.3847100986    
 0.1416812897E-02
  1.386358446    
  1.306103849    
  1.165506495    
 0.9002762706    
 0.6971937607E-03
-0.2695580326E-03
  1.303859669    
  1.122387517    
 0.6827995179    
-0.4301799080E-04
-0.1724678480E-03