# vtk DataFile Version 3.0
./plots/steadyStateStream.vtk
ASCII
DATASET UNSTRUCTURED_GRID

POINTS   38820 double
  3.798663090      0.7957371950E-01   0.000000000    
  3.731242310      0.1858190200       0.000000000    
  3.612510690     -0.7660720800E-01   0.000000000    
  3.702838590     -0.4485832280E-01   0.000000000    
  3.879442720     -0.7483201590E-01   0.000000000    
  3.967311370      0.9732478890E-01   0.000000000    
  3.852712710      0.2187305670       0.000000000    
  4.129432810      0.5769516240E-01   0.000000000    
  4.032715270     -0.3932546520E-01   0.000000000    
  3.658478680      0.9332109890E-01   0.000000000    
  3.581281820     -0.1694949030E-02   0.000000000    
  3.754810280     -0.1747149740       0.000000000    
  3.632272170     -0.1618736000       0.000000000    
  3.985406630      0.2498965110       0.000000000    
  4.091491730      0.1893853320       0.000000000    
  3.614185920      0.2236646970       0.000000000    
  3.734911100      0.3115183740       0.000000000    
  3.532201650     -0.1001658850       0.000000000    
  3.524715780      0.1141334650       0.000000000    
  3.457257670      0.2785588760E-03   0.000000000    
  3.871481920     -0.2603375590       0.000000000    
  4.024417190     -0.1815213780       0.000000000    
  4.160397440     -0.9398359770E-01   0.000000000    
  4.263325510      0.9069290410E-02   0.000000000    
  3.717147370     -0.5176558820       0.000000000    
  3.684231360     -0.3323438110       0.000000000    
  4.590325660      0.1196552800E-02   0.000000000    
  4.115519420      0.3568354230       0.000000000    
  3.900870450      0.3864910590       0.000000000    
  3.737296130      0.4665507980       0.000000000    
  3.578174120      0.3857306560       0.000000000    
  3.462951640      0.2484243390       0.000000000    
  3.405179310     -0.1196466780       0.000000000    
  3.503266090     -0.2446308350       0.000000000    
  4.175747150     -0.2591288310       0.000000000    
  4.334141030     -0.1478369420       0.000000000    
  3.858251560     -0.4383995660       0.000000000    
  4.259516410      0.1852714030       0.000000000    
  3.599445600     -0.4722040230       0.000000000    
  4.432022180      0.4620883500E-01   0.000000000    
  3.378228320      0.1171233220       0.000000000    
  3.324094610     -0.1183939290E-01   0.000000000    
  4.670688340     -0.1055202780       0.000000000    
  4.518237840     -0.1207881650       0.000000000    
  4.729424780      0.4064317890E-01   0.000000000    
  4.825633320     -0.8902326470E-01   0.000000000    
  4.022843510      0.5489150100       0.000000000    
  3.861113850      0.5516200050       0.000000000    
  3.620060330      0.5342406170       0.000000000    
  3.339599200     -0.2381956090       0.000000000    
  3.401685670      0.3892173030       0.000000000    
  4.316649280     -0.3260542270       0.000000000    
  4.023087910     -0.3593996350       0.000000000    
  4.327691300      0.3866644370       0.000000000    
  3.837634480     -0.5874430200       0.000000000    
  3.530264440     -0.3887035590       0.000000000    
  4.457136320      0.2517888970       0.000000000    
  3.287413820      0.2580166010       0.000000000    
  3.218332210      0.9041793540E-01   0.000000000    
  3.214280150     -0.3637432130E-01   0.000000000    
  3.275026630     -0.1259381890       0.000000000    
  4.610551610     -0.2296181490       0.000000000    
  4.601557610      0.1468189930       0.000000000    
  4.917630840      0.8001576650E-01   0.000000000    
  4.921893980      0.2557453320       0.000000000    
  4.891536670     -0.2133939610       0.000000000    
  3.596181860     -0.6001055190       0.000000000    
  3.733789960      0.6290423330       0.000000000    
  3.913449140      0.7272446470       0.000000000    
  3.483793110      0.5248172310       0.000000000    
  4.194000800     -0.4429287210       0.000000000    
  4.222401880      0.5503421410       0.000000000    
  4.011865380     -0.5721002760       0.000000000    
  3.395382440     -0.3726636140       0.000000000    
  4.493192060      0.4150155980       0.000000000    
  3.272442940      0.4007547460       0.000000000    
  3.129340000      0.2089225020       0.000000000    
  3.112285310     -0.4890047030E-02   0.000000000    
  3.089891630      0.9910340320E-01   0.000000000    
  4.471597510     -0.2863861870       0.000000000    
  4.771430020      0.2108700170       0.000000000    
  4.749696840     -0.2335221060       0.000000000    
  5.089410010      0.2128153160       0.000000000    
  4.994235110     -0.1014616810       0.000000000    
  5.092730910      0.2921767290E-01   0.000000000    
  3.223807190     -0.2198596660       0.000000000    
  3.145859770     -0.1313881370       0.000000000    
  3.464906450     -0.5208013270       0.000000000    
  3.722312440     -0.6740120800       0.000000000    
  3.584915380     -0.7477844640       0.000000000    
  3.702151700      0.8309359000       0.000000000    
  3.899769010      0.9416535150       0.000000000    
  3.571519060      0.6654172030       0.000000000    
  4.125753210      0.7206247130       0.000000000    
  4.228946560     -0.6473298410       0.000000000    
  4.420172650      0.5594819720       0.000000000    
  3.331938860      0.5164438070       0.000000000    
  3.156579970      0.3489049390       0.000000000    
  3.007938940      0.1630882600       0.000000000    
  4.408009840     -0.4914198810       0.000000000    
  4.630524880      0.3302889880       0.000000000    
  4.642606180     -0.3996900370       0.000000000    
  5.003673500      0.3625086000       0.000000000    
  4.856512500     -0.3621025980       0.000000000    
  5.030264450     -0.2801403080       0.000000000    
  5.256351330      0.8885191810E-01   0.000000000    
  5.271348580      0.2668084360       0.000000000    
  3.024655800     -0.8904158330E-01   0.000000000    
  2.987446390      0.3663761270E-01   0.000000000    
  3.234509650     -0.3466703930       0.000000000    
  3.125871840     -0.2566707320       0.000000000    
  3.296902200     -0.4952829160       0.000000000    
  3.876117360     -0.7339589550       0.000000000    
  3.718981040     -0.8549796990       0.000000000    
  3.484158030     -0.6653722190       0.000000000    
  3.560784930     -0.8815597490       0.000000000    
  3.745640820       1.044100690       0.000000000    
  3.486727540      0.8178521940       0.000000000    
  3.561896300      0.9979287540       0.000000000    
  4.049481350      0.8707158820       0.000000000    
  4.324118770      0.7281129820       0.000000000    
  3.404167520      0.6583174040       0.000000000    
  3.188989530      0.4904171890       0.000000000    
  3.022097090      0.2921905560       0.000000000    
  4.594614410     -0.6327660410       0.000000000    
  4.632725470      0.5450225370       0.000000000    
  4.410773880     -0.7031596600       0.000000000    
  4.830159030      0.4102279230       0.000000000    
  5.206523640     -0.1358733910       0.000000000    
  5.165796100      0.4025572220       0.000000000    
  5.446267620      0.1920050700       0.000000000    
  5.433694520     -0.3575759110E-01   0.000000000    
  5.015436620     -0.4849390890       0.000000000    
  4.808620860     -0.5603409930       0.000000000    
  5.640803330      0.6895999920E-01   0.000000000    
  5.829755390      0.1442291530       0.000000000    
  2.907032080     -0.6850788930E-01   0.000000000    
  2.917063170      0.1191335440       0.000000000    
  3.050990040     -0.1871168520       0.000000000    
  3.091875270     -0.3740703350       0.000000000    
  3.168363240     -0.4666898370       0.000000000    
  2.862826800      0.3711941650E-01   0.000000000    
  4.064270130     -0.7940206280       0.000000000    
  3.768873690      -1.013013520       0.000000000    
  3.347415780     -0.6477275530       0.000000000    
  3.618403630      -1.011620130       0.000000000    
  3.425112400     -0.8071121280       0.000000000    
  3.625286400       1.157951640       0.000000000    
  3.369659060      0.9674715500       0.000000000    
  3.900676480       1.115391540       0.000000000    
  3.778764180       1.230737070       0.000000000    
  3.243775000      0.6352829520       0.000000000    
  4.223139960      0.8985992660       0.000000000    
  3.306984780      0.7922077050       0.000000000    
  3.043574560      0.4416635570       0.000000000    
  4.523430200      0.7290354150       0.000000000    
  4.840895040      0.6351327540       0.000000000    
  4.695031330      0.7315471680       0.000000000    
  5.014869130      0.5277520040       0.000000000    
  5.402200560      0.4337209000       0.000000000    
  5.421913280     -0.2710545140       0.000000000    
  5.215266810     -0.3835617660       0.000000000    
  5.676882490      0.3239399740       0.000000000    
  5.631500870     -0.1621346230       0.000000000    
  4.980756180     -0.7055176130       0.000000000    
  5.830305370     -0.5452393150E-01   0.000000000    
  6.013147440      0.6373198440E-01   0.000000000    
  6.177160050      0.1649479620       0.000000000    
  2.908560010      0.2212297690       0.000000000    
  3.011759250     -0.2784981740       0.000000000    
  3.049452280     -0.5002301640       0.000000000    
  2.951883270     -0.1783692380       0.000000000    
  2.758129640      0.5034766670E-01   0.000000000    
  2.791816140     -0.5136459680E-01   0.000000000    
  4.763081560     -0.7779340040       0.000000000    
  4.287991160     -0.8801991220       0.000000000    
  3.901029110     -0.9201201010       0.000000000    
  3.709595110      -1.163561070       0.000000000    
  3.456639390     -0.9831190300       0.000000000    
  3.242905540     -0.7802056890       0.000000000    
  3.169075320     -0.6131549030       0.000000000    
  3.435056950       1.178144620       0.000000000    
  3.598472060       1.348480310       0.000000000    
[...]
POINT_DATA   38820
SCALARS psi double
LOOKUP_TABLE default
 0.5027710469E-02
 0.1232444899E-01
-0.3410327971E-02
-0.2275338619E-02
-0.5120567155E-02
 0.7714227140E-02
 0.1783096787E-01
 0.5326362536E-02
-0.3147734677E-02
 0.4785837809E-02
 0.1183250609E-05
-0.1158310998E-01
-0.8726732604E-02
 0.2447561801E-01
 0.1868308077E-01
 0.1368322159E-01
 0.2725463067E-01
-0.3903028344E-02
 0.4635154442E-02
 0.7468868238E-04
-0.2321088551E-01
-0.1653295461E-01
-0.8915983473E-02
 0.9988541143E-03
-0.7254094983E-01
-0.2895327071E-01
 0.2335556916E-03
 0.4622564801E-01
 0.4577648521E-01
 0.5898988013E-01
 0.3516704000E-01
 0.1288412710E-01
-0.3493386777E-02
-0.1325766632E-01
-0.2989043847E-01
-0.1692260626E-01
-0.5611706891E-01
 0.2092751234E-01
-0.5510133675E-01
 0.5493938767E-02
 0.3242201992E-02
-0.1372979463E-03
-0.1476641427E-01
-0.1547145185E-01
 0.5882874965E-02
-0.1351414762E-01
 0.9556192805E-01
 0.8967386521E-01
 0.7381751468E-01
-0.9234481703E-02
 0.3007886640E-01
-0.4547326343E-01
-0.4383240435E-01
 0.5945266033E-01
-0.1013380414    
-0.3404296254E-01
 0.3491790212E-01
 0.9850036468E-02
 0.1052596773E-02
-0.2249677257E-03
-0.2286109249E-02
-0.3392967388E-01
 0.2033387496E-01
 0.1286826784E-01
 0.4541569980E-01
-0.3601759817E-01
-0.9532246611E-01
 0.1130378841    
 0.1666232254    
 0.6528576845E-01
-0.6930216031E-01
 0.1044187160    
-0.1032465717    
-0.2688430141E-01
 0.7210112132E-01
 0.2790932005E-01
 0.3409623704E-02
 0.6841015727E-04
 0.6948536289E-04
-0.4153208376E-01
 0.3360884073E-01
-0.3733019630E-01
 0.3943906425E-01
-0.1689572085E-01
 0.5126552585E-02
-0.5633006504E-02
-0.9562234499E-03
-0.6319232450E-01
-0.1316869165    
-0.1608689587    
 0.2137758694    
 0.2967995431    
 0.1208438661    
 0.1736245838    
-0.1434932099    
 0.1160172256    
 0.5667176225E-01
 0.1623259278E-01
-0.6816633067E-04
-0.9159232501E-01
 0.5501329640E-01
-0.7259315670E-01
 0.7331991966E-01
-0.6892851736E-01
-0.5302153863E-01
 0.1674628857E-01
 0.5510943930E-01
 0.6274690208E-03
-0.3815591601E-03
-0.1808073270E-01
-0.6041576971E-02
-0.4939322613E-01
-0.1680862558    
-0.2293576646    
-0.1165700196    
-0.2384504322    
 0.3665072472    
 0.1951039151    
 0.3214134390    
 0.2563540399    
 0.1870626955    
 0.1099077730    
 0.4408929831E-01
 0.6509159691E-02
-0.1534633510    
 0.1192165768    
-0.1783331861    
 0.8161679090E-01
-0.2530162252E-01
 0.8960849622E-01
 0.4047325874E-01
-0.7063869764E-02
-0.1116364990    
-0.1320158848    
 0.1501974366E-01
 0.3393106177E-01
 0.1273466810E-02
-0.1518472614E-02
-0.1069444102E-02
-0.1766792288E-01
-0.3750624102E-01
-0.7857163425E-03
-0.2101464662    
-0.3430391824    
-0.1026985708    
-0.3345726810    
-0.1855998583    
 0.4572484713    
 0.2891458998    
 0.4328349865    
 0.5301972610    
 0.9304783546E-01
 0.2835248574    
 0.1713679064    
 0.2779627030E-01
 0.1970765352    
 0.1654116191    
 0.2065058112    
 0.1274826147    
 0.1068290124    
-0.5906479318E-01
-0.8511873301E-01
 0.7937886211E-01
-0.3582622471E-01
-0.2057418490    
-0.1246952680E-01
 0.1561052129E-01
 0.4308690912E-01
-0.1370899158E-03
-0.5047284101E-02
-0.4104936270E-01
 0.7118414572E-03
-0.1508233303E-02
 0.1509182139E-02
-0.2351986666    
-0.2744609990    
-0.2816376258    
-0.4658389390    
-0.3049180032    
-0.1614164311    
-0.8108183678E-01
 0.4672995060    
 0.6368438699    
 0.7263702723    
 0.6050266421    
 0.4023499556    
 0.1437417982    
 0.2471743142    
 0.7237718623E-01
 0.3037733038    
 0.3008939585    
 0.2290880672    
 0.2806177977    
 0.1681779921    
 0.1586918602    
-0.1020567313    
-0.1729738666    
-0.4060446429E-01
 0.8334301495E-01
-0.7126588730E-01
 0.1084347622E-01
-0.1618483055E-01
-0.2338521588E-02
-0.2584047320E-02
 0.2610826597E-02
-0.2152625721E-02
 0.9428256481E-03
 0.3227183062E-01
-0.7338078295E-02
-0.3322975335    
-0.2771570274    
-0.3834377406    
-0.3569056899    
-0.4310594939    
-0.4629405238    
-0.2648850832    
-0.6233045390    
-0.1435247409    
-0.8178510833E-01
 0.6508922123    
 0.8118190899    
 0.8627172970    
 0.8190428669    
 0.9387987061    
 0.5758046698    
 0.3925683710    
 0.1166255310    
 0.2070623119    
 0.4371156138    
 0.4953929156E-01
 0.3987965369    
 0.2960788678    
 0.4340750070    
 0.2154854134    
-0.1357954718    
-0.3139080151    
 0.1686290145    
 0.2335959041E-01
-0.1224183752E-01
-0.1398692466E-02
 0.1132763527E-02
-0.3918892734E-02
 0.4117695155E-02
 0.1723029141E-02
-0.2573599394E-02
 0.1033007683    
-0.1575085441    
-0.1068864223E-01
 0.5812451166E-01
-0.2588125415E-01
-0.1154256282    
-0.4313622943    
-0.3722190046    
-0.4140911385    
-0.5493071233    
-0.4550742074    
-0.6352385166    
-0.3812806412    
-0.7743873732    
-0.2360701440    
-0.3960232051E-01
-0.1327648846    
-0.6338736335    
-0.3186648260E-02
 0.9562350382    
 0.7728909604    
  1.012929285    
  1.073461699    
 0.5898070501    
 0.3288847708    
  1.130198402    
 0.8076779234    
 0.9797127023E-01
 0.1728922223    
 0.4522850047    
-0.2525093259    
 0.2627460561    
 0.3616585927    
 0.5917906375    
 0.4937910027E-01
 0.5432343891E-02
-0.6795651215E-02
-0.3648237827E-02
 0.4665933209    
 0.5683264766    
 0.4309925045E-02
-0.5211291927E-02
 0.1920962813    
-0.2024771921    
 0.1457138139    
 0.6501614742E-01
-0.7386449473E-01
-0.7807906025E-01
 0.1753812867E-02
-0.2279382721    
-0.4669176035    
-0.4882503730    
-0.5382785137    
-0.5321800387    
-0.7730739367    
-0.8726745733    
-0.3590025665    
-0.3284167964E-01
-0.8549486874E-01
-0.2072526194    
-0.5418969552    
 0.5769711958E-02
 0.1897338474E-02
-0.1333679915E-02
-0.7919672174    
-0.7662161661    
  1.159374552    
  1.224449868    
 0.7466171984    
 0.8992252928    
 0.4844308417    
  1.283413051    
  1.041309365    
  1.044878507    
 0.2754489902    
 0.6301410749    
 0.6650781953    
 0.8780725481E-01
 0.1461366679    
 0.1936255084E-01
 0.1571081877E-02
 0.7483371665    
-0.1340495378E-02
-0.5953272014E-02
 0.6632682477    
 0.4316349136    
 0.3025645366    
 0.1300863830    
 0.2263335742    
-0.1182309183    
-0.8917428091E-01
-0.2863756735    
-0.1715094536    
-0.3470798455    
-0.4125968459    
-0.7169947291    
-0.5872340272    
-0.7537129429    
-0.6931090573    
-0.1695436121    
-0.3204671556    
-0.4476966275    
-0.9776947689    
-0.2250960140E-01
-0.6319173963E-01
-0.5071619572E-01
 0.2631367416E-01
 0.7232026465E-01
 0.6896548745E-02
-0.6237314943E-02
 0.7078177088E-02
 0.3359766728E-02
-0.1865314038E-02
-0.9621854005    
-0.7269129594    
-0.9125763873    
  1.375562280    
  1.297675103    
  1.089398242    
 0.6553893751    
 0.8265681375    
  1.324046900    
  1.444556587    
  1.248983709    
 0.4082747854    
 0.8682423270    
 0.2287362257    
 0.9465583600    
 0.4395325528E-01
 0.1275916951    
 0.8140685196    
-0.2382400521E-02
 0.1379543791E-01
 0.8639492736    
 0.5599959819    
 0.2498809021    
-0.1686831504    
 0.3462962187    
 0.4894660545    
-0.2405509285    
-0.3152341210    
-0.3903384880    
-0.5318811966    
-0.6242661777    
-0.9012742222    
-0.9165899083    
-0.9452872381    
-0.2771882386    
-0.9377188053    
-0.4337203069    
-0.1300855990    
-0.1424660941    
 0.1675344350    
 0.3327037989E-02
-0.8095026636E-02
 0.9033284661E-02
-0.6370320106E-02
 0.8211667808E-02
 0.3901406442E-02
-0.2076932649E-02
-0.1514867812E-02
 0.6551773004E-01
 0.1239615763    
 0.1466444359    
 0.9780155372E-01
-0.1280759991E-01
-0.4470983809E-01
 -1.132293681    
-0.6075969884    
-0.8188793075    
 -1.007532431    
 -1.139463080    
  1.776939241    
  1.630007858    
  1.490799664    
  1.451496629    
  1.212843217    
  1.009412244    
  1.509254980    
  1.641981975    
  1.462222695    
 0.5658754278    
 0.7372907626    
 0.3420936625    
 0.1859685923    
  1.059054315    
  1.124447353    
  1.195370754    
 0.8544834106E-01
 0.3493158288E-01
  1.017615742    
 0.8055674670    
 0.3953820991    
 0.6863273414    
 0.6868581541    
-0.4624596085    
-0.4189202821    
-0.5152737583    
-0.7181869277    
 -1.021195480    
 -1.108368891    
-0.3500951098    
-0.8376030466    
-0.2253368445    
-0.2224571219    
 0.3239695573    
 0.7274013933E-02
-0.6191699591E-02
 0.7052652725E-02
-0.9836589965E-02
 0.1076809222E-01
-0.7378991197E-02
 0.9139447191E-02
-0.2462034435E-02
 0.4527278280E-02
-0.5378131038E-01
-0.1123645711    
 0.2681469941    
 0.2014558308    
 0.1719516454E-01
 0.5870887030E-01
 0.2384128392    
 0.1956821559    
-0.4768403580E-02
-0.2826896117E-01
 -1.116657071    
-0.9880169614E-01
 -1.183772439    
 -1.340722176    
-0.5817045808    
-0.7320557689    
 -1.286341461    
 -1.206356535    
 -1.023565109    
 -1.373487831    
 -1.236495140    
 -1.449023018    
 -1.652753074    
  1.911588909    
  1.709699996    
  1.690969415    
  1.515225240    
  1.312969703    
  1.631765888    
  1.109115435    
  1.604218441    
  1.759858714    
 0.6467688436    
 0.4844203596    
 0.9177240581    
 0.2783557963    
  1.438918291    
 0.1449801442    
  1.311311034    
  1.383325028    
  1.237257481    
  1.105104126    
 0.5513546052    
 0.9943293942    
 0.9094308661    
-0.6573820756    
-0.6044744974    
-0.6753762888    
 -1.161602516    
-0.8736968126    
-0.3206108833    
 0.4575859096    
 0.6319286268E-01
 0.2348047998E-01
 0.8011261722E-03
-0.9457998479E-02
-0.1119045582E-01
 0.1000519867E-01
 0.1214727042E-01
-0.7881339560E-02
 0.1014017582E-01
 0.2176374123E-02
-0.2598720718E-02
 0.2898766086    
 0.3470780361    
-0.1985497349    
-0.2727987745    
-0.1126002385    
-0.2265630673E-01
 0.3389646565    
 0.3857097265    
 0.8756470562E-01
 0.2304033483    
 -1.046092019    
 0.8197318894E-03
-0.1488203897E-01
 -1.293036447    
-0.1791837505    
-0.2865164250    
 -1.373152257    
 -1.417890681    
-0.7129005890E-01
-0.4965941088    
-0.6527156747    
 -1.462718039    
-0.9193265497    
 -1.394200884    
 -1.533158677    
 -1.116142252    
 -1.598451807    
 -1.316591599    
 -1.826760010    
 -1.516091814    
 -1.711638376    
  2.505019013    
  2.018806217    
  2.041224444    
  1.827882266    
  1.938323088    
  1.592237610    
  1.388697445    
  1.909762122    
  1.192886165    
  1.863306931    
 0.8208264438    
  1.003093645    
 0.4068748556    
 0.5596577748    
  1.701660443    
  1.873131651    
 0.2097835672    
  1.589149219    
  1.486637387    
  1.322294403    
 0.8324649010    
  1.191349278    
  1.299326032    
-0.7708744009    
-0.9085166139    
 0.6250434624    
 0.1312324885    
 0.4496484785E-01
 0.1299228144E-01
-0.4866572087E-02
-0.1206152652E-01
 0.1249827738E-01
-0.1210218775E-01
 0.1307216612E-01
-0.7905574178E-02
 0.8539653922E-02
 0.2419208095E-02
 0.5207510541    
 0.4329780631    
-0.5371056758    
-0.4114948090    
-0.1571742025    
 0.3300037915    
 0.5155457740    
-0.4129205600E-01
-0.3111695856    
-0.4066779373    
 0.4068001526    
 0.1555928999    
 -1.288835646    
 -1.132076094    
-0.1161947800E-01
 0.5147579580E-02
 -1.476081347    
 -1.615077738    
-0.2325551067    
-0.1395916996    
-0.4348864945E-01
-0.4180428905    
-0.5671124010    
-0.8221694161    
 -1.579018812    
 -1.648639377    
 -1.712057786    
 -1.004858380    
 -1.193663884    
 -1.769784673    
 -1.815024940    
 -1.915203837    
 -1.777974474    
 -1.385363495    
 -1.579126236    
 -1.988144347    
 -2.211650596    
  2.350819520    
  2.273972370    
  2.085799613    
  1.863896517    
  2.172830064    
  1.656050443    
  1.452976800    
  2.164759983    
  1.261182637    
  2.166452822    
 0.8977396934    
  1.076605562    
 0.7247587896    
  2.068731374    
  1.964403368    
  1.651828074    
 0.3253122311    
 0.4774765416    
  1.096626413    
-0.8682992791    
 0.2226612001    
 0.8812212170E-01
 0.3015497851E-01
 0.3806136938E-02
  1.828227054    
  1.640184524    
  1.459696943    
  1.446502030    
-0.9474671401E-02
-0.1401331549E-01
 0.1456526212E-01
-0.1252940311E-01
 0.9374371001E-02
 0.1356801404E-01
-0.6532972837E-02
-0.1260810607E-02
 0.7126377051    
 0.8622497155    
 0.5555854002    
 0.5487968139    
-0.1923465913    
-0.3205303471    
 0.6902810154    
-0.6709233076    
-0.5292155521    
-0.9469192835    
-0.8107940949    
-0.5426018917    
 0.7045120042    
-0.3489481208E-01
 0.3603048683    
 0.7222780250E-01
 -1.479939368    
 0.9318732904E-02
-0.4960404158E-02
 0.1602865050    
 0.2869808607    
 -1.383161295    
 -1.727543105    
 -1.615978655    
-0.1048103234    
-0.1857732203    
-0.3196991464E-01
-0.3492618431    
-0.4859402885    
-0.7282918173    
 -1.842987639    
 -1.795312485    
-0.8990834105    
 -1.903424773    
 -1.076620492    
 -2.005617129    
 -2.039269690    
 -1.444588071    
 -1.258592424    
 -1.958239884    
 -1.635605628    
 -1.833491558    
 -2.145072509    
 -2.442859822    
 -2.251420465    
 -2.039257148    
  2.035989094    
  2.109396909    
  2.257939469    
  2.388776752    
  2.365575856    
  2.515279492    
  2.628049441    
  2.573281780    
  2.437906331    
  2.304070447    
  2.601544629    
  2.107080152    
  1.897524291    
  1.696372982    
  1.502529745    
  1.316044535    
  2.546756900    
  2.410250971    
  2.391085554    
 0.9639467915    
  1.137064447    
 0.7956929431    
  2.354414294    
  2.414682703    
  2.143715708    
 0.6329229967    
 -1.210244308    
 0.1466512987    
 0.3089058434    
 0.4112549234    
 0.7459457093E-01
  1.880992681    
  1.923847826    
  2.113177023    
  1.960125014    
  1.789330497    
  1.609689096    
 -2.314691746    
 -2.114339572    
 -2.496157641    
 -2.434993614    
 -2.638232501    
 -2.568496276    
  1.414716326    
 0.1504752916E-01
-0.3625898827E-02
-0.1293596457E-01
-0.1538500614E-01
 0.1362197409E-01
-0.1283394469E-01
 0.1609405277E-01
 -2.785608000    
 -2.953945728    
 -3.116941511    
-0.7553737487E-02
  1.149813784    
 0.8053760057    
 0.8341424766    
 0.8497014646    
 -1.078533765    
 -1.121545911    
-0.9714375769    
-0.5688923738    
-0.6731961771    
-0.8219484346    
 0.7722050840    
 0.6205783415    
-0.2439627730    
-0.1079978315    
-0.4423133727    
 -1.773422282    
-0.6017783937E-03
 0.6277443469E-02
 0.1298402859E-01
 0.1612000980E-02
 0.1432640739    
 0.8026031634E-02
 0.3246343440    
 0.4935080340    
 0.5515735086    
 -1.678556739    
 -1.590813282    
-0.7764885345E-01
-0.1458207650    
-0.2066434429E-01
 -1.918864999    
-0.2886492439    
-0.4118164043    
-0.6369870407    
 -1.909293663    
-0.7975080198    
 -2.101935295    
 -2.029002253    
 -2.251099744    
 -1.312016826    
 -1.135883648    
-0.9643277987    
 -2.203588392    
 -2.157869070    
 -1.493275548    
 -2.317376612    
 -1.680077496    
 -2.396001894    
 -1.872196846    
 -2.068741067    
 -2.466301074    
 -2.269198879    
  1.804951347    
  1.925035058    
  1.662659931    
  1.507069071    
  2.047966006    
  2.280148399    
  1.895425057    
  2.196912916    
  2.333385596    
  2.596532439    
  2.628600854    
  2.833727642    
  2.541665920    
  3.007731183    
  2.767651552    
  1.355481512    
  1.228048535    
  2.900169131    
  3.136862149    
  3.023741703    
  3.146668320    
  3.219312564    
  3.030025289    
  2.873981776    
  2.749372420    
  2.594388016    
  2.856256934    
  2.418863246    
  2.825179485    
  2.256442445    
  2.090436294    
  1.907983232    
  1.720998893    
  1.536766927    
  2.469278602    
  2.749527504    
  2.587494724    
  1.357739457    
  1.018143394    
  1.184960796    
 0.8562494515    
  2.558885746    
  2.323037866    
 0.6990690462    
 0.2475912746    
 0.3522333147    
 0.5487049968    
 0.1139711087    
  2.182685955    
  2.131531030    
  2.165171682    
 -1.879360688    
 -1.634550916    
 -1.472697354    
 -1.789466385    
 -1.908251176    
 -2.032950345    
 -2.133653942    
 -1.985923262    
 -2.329643530    
 -2.545762012    
 -2.274793548    
 -2.509105850    
 -2.378469383    
 -2.658459152    
  2.268420219    
  1.944909850    
  2.121159083    
  1.718448755    
 0.5321647702E-01
 0.3516907297E-02
-0.8570153432E-02
-0.1633667533E-01
-0.1546438825E-01
 -3.070650050    
 -2.685076711    
 -2.833766508    
 -3.079393617    
 -2.933295733    
 -3.103786818    
 -3.313795621    
-0.1334845087E-01
  1.490377150    
  1.011128642    
  1.017044291    
 -1.272524240    
-0.8062870447    
 -1.138606797    
  1.030467713    
 0.9059042213    
 -1.288372075    
-0.7378761290    
 -1.426095868    
 -1.601878737    
-0.8334400640E-02
 0.2659443114E-02
 0.1595192772E-01
 0.1715002152E-01
 0.1110327246E-01
 0.1182015523    
-0.4387291138E-01
-0.1816338418    
 0.3405080406    
 0.5974973366    
 0.7606904924    
-0.4629697181    
-0.3298758547    
 -1.771961298    
-0.5736131914E-01
-0.1127200150    
 0.7316669943E-02
-0.1128498576E-01
 -2.141336782    
 -1.948986430    
-0.2352645458    
-0.3448187680    
-0.5508836801    
 -2.219053176    
 -2.169633483    
 -2.302760377    
 -2.444489098    
 -1.183419204    
 -1.017893394    
-0.8568946091    
 -2.406644890    
-0.7005887563    
 -1.353954221    
 -1.529535482    
 -2.498800368    
 -2.574538570    
 -1.709318098    
 -2.643385471    
 -1.891912239    
 -2.076232974    
 -2.477939815    
 -2.262530300    
 -2.451510469    
 -2.637069329    
 -2.789590307    
 -2.941406024    
 -3.223142476    
 -3.205509618    
 -3.291477230    
 -3.095555324    
  1.718068046    
  1.594079739    
  1.460863712    
  1.836594327    
  2.200865397    
  1.711090870    
  1.962851685    
  2.155331945    
  2.521780239    
  2.762897804    
  2.731098179    
  2.301383997    
  2.438151837    
  3.140990536    
  2.555750834    
  1.322811753    
  1.522179595    
  1.183992648    
  1.358141255    
  2.674544868    
  3.263185573    
  1.031447891    
 0.7096366187    
 0.8396238093    
  2.787100786    
  2.891017492    
  3.347564939    
  2.978767278    
  3.239636276    
  3.039259397    
  3.313172139    
  3.341628698    
  3.013257644    
  3.047879822    
  3.083640685    
  3.012448140    
  3.019273366    
  3.052012980    
  2.950068458    
  2.848619971    
  2.835627215    
  3.064613032    
  2.984506722    
  2.640440172    
  2.759438081    
  2.511899770    
  2.876514788    
  2.367721568    
  2.060394149    
  2.215796546    
  3.092540663    
  1.897692085    
  1.728102088    
  1.556422603    
  3.071880465    
  2.677113162    
  2.734611881    
  1.386581261    
  1.060579709    
  1.220960593    
  2.605088427    
 0.9052342255    
 0.7544224081    
  2.597540036    
 0.2898141111    
 0.4725561040    
 0.1925279488    
  2.448335510    
  2.453118331    
 0.6089628780    
 -1.650740967    
 -1.437104554    
 -1.344829488    
 -1.293752500    
 -1.124670528    
 -1.577783546    
 -1.708075783    
 -1.954115037    
 -1.826051858    
 -1.958820646    
 -2.299481090    
 -2.570104946    
 -2.108018890    
 -2.229507017    
 -2.743566730    
  2.410645354    
  2.075519470    
 0.9443444592E-01
 0.2227504088E-01
  2.425034442    
  2.377195186    
 0.1635309975E-02
-0.1254455464E-01
 -2.914259368    
 -2.318410669    
 -2.207613536    
 -2.461662695    
 -3.305070962    
 -2.605470211    
 -3.260337340    
 -2.737161934    
 -3.367698728    
 -2.890185041    
 -3.542948432    
-0.1731427560E-01
-0.1699159758E-01
  1.812815938    
  1.195403428    
  1.355804641    
-0.9878589461    
  1.141381203    
  1.083038176    
 -1.453606442    
 -1.427958622    
-0.9471610849    
 -1.617840340    
 -1.782693287    
-0.7231614652E-02
-0.1087484796E-01
-0.2609060732E-02
-0.1397346872E-01
 0.1771762001E-01
 0.1527097831E-01
 0.6646831451E-02
-0.1351608309E-02
 0.1903224657    
-0.1167804583    
-0.2657935583    
 0.5699773675    
 0.8741157106    
-0.4440040556    
-0.6680963280    
 0.9254270888    
-0.7125124448    
 -1.944858345    
-0.8515080935E-01
-0.4044358275E-01
-0.6129683490E-02
 0.1457637728E-01
 -1.947127941    
 -2.282003714    
-0.1887273041    
-0.2846822965    
-0.4711144019    
 -2.387359489    
 -2.439840101    